<?xml version="1.0"?>
<VTKFile type="UnstructuredGrid" version="0.1" byte_order="BigEndian">
<UnstructuredGrid>
    <Piece NumberOfPoints="4000" NumberOfCells="4000">
        <Points>
             <DataArray type="Float32" NumberOfComponents="3" Format="ascii">
                  0.1519E-01    0.1250E-01    0.1250E-01
                  0.4558E-01    0.1250E-01    0.1250E-01
                  0.7354E-01    0.1250E-01    0.1250E-01
                  0.1000E+00    0.1250E-01    0.1250E-01
                  0.1249E+00    0.1250E-01    0.1250E-01
                  0.1501E+00    0.1250E-01    0.1250E-01
                  0.1790E+00    0.1250E-01    0.1250E-01
                  0.2092E+00    0.1250E-01    0.1250E-01
                  0.2381E+00    0.1250E-01    0.1250E-01
                  0.2690E+00    0.1250E-01    0.1250E-01
                  0.2985E+00    0.1250E-01    0.1250E-01
                  0.3253E+00    0.1250E-01    0.1250E-01
                  0.3500E+00    0.1250E-01    0.1250E-01
                  0.3753E+00    0.1250E-01    0.1250E-01
                  0.4002E+00    0.1250E-01    0.1250E-01
                  0.4294E+00    0.1250E-01    0.1250E-01
                  0.4584E+00    0.1250E-01    0.1250E-01
                  0.4897E+00    0.1250E-01    0.1250E-01
                  0.5188E+00    0.1250E-01    0.1250E-01
                  0.5480E+00    0.1250E-01    0.1250E-01
                  0.5738E+00    0.1250E-01    0.1250E-01
                  0.6000E+00    0.1250E-01    0.1250E-01
                  0.6257E+00    0.1250E-01    0.1250E-01
                  0.6527E+00    0.1250E-01    0.1250E-01
                  0.6803E+00    0.1250E-01    0.1250E-01
                  0.7098E+00    0.1250E-01    0.1250E-01
                  0.7384E+00    0.1250E-01    0.1250E-01
                  0.7673E+00    0.1250E-01    0.1250E-01
                  0.7956E+00    0.1250E-01    0.1250E-01
                  0.8232E+00    0.1250E-01    0.1250E-01
                  0.8500E+00    0.1250E-01    0.1250E-01
                  0.8752E+00    0.1250E-01    0.1250E-01
                  0.9004E+00    0.1250E-01    0.1250E-01
                  0.9305E+00    0.1250E-01    0.1250E-01
                  0.9606E+00    0.1250E-01    0.1250E-01
                  0.9923E+00    0.1250E-01    0.1250E-01
                  0.1021E+01    0.1250E-01    0.1250E-01
                  0.1050E+01    0.1250E-01    0.1250E-01
                  0.1075E+01    0.1250E-01    0.1250E-01
                  0.1100E+01    0.1250E-01    0.1250E-01
                  0.1124E+01    0.1250E-01    0.1250E-01
                  0.1150E+01    0.1250E-01    0.1250E-01
                  0.1179E+01    0.1250E-01    0.1250E-01
                  0.1210E+01    0.1250E-01    0.1250E-01
                  0.1241E+01    0.1250E-01    0.1250E-01
                  0.1270E+01    0.1250E-01    0.1250E-01
                  0.1298E+01    0.1250E-01    0.1250E-01
                  0.1325E+01    0.1250E-01    0.1250E-01
                  0.1350E+01    0.1250E-01    0.1250E-01
                  0.1376E+01    0.1250E-01    0.1250E-01
                  0.1402E+01    0.1250E-01    0.1250E-01
                  0.1432E+01    0.1250E-01    0.1250E-01
                  0.1461E+01    0.1250E-01    0.1250E-01
                  0.1492E+01    0.1250E-01    0.1250E-01
                  0.1521E+01    0.1250E-01    0.1250E-01
                  0.1550E+01    0.1250E-01    0.1250E-01
                  0.1574E+01    0.1250E-01    0.1250E-01
                  0.1600E+01    0.1250E-01    0.1250E-01
                  0.1626E+01    0.1250E-01    0.1250E-01
                  0.1652E+01    0.1250E-01    0.1250E-01
                  0.1683E+01    0.1250E-01    0.1250E-01
                  0.1715E+01    0.1250E-01    0.1250E-01
                  0.1744E+01    0.1250E-01    0.1250E-01
                  0.1772E+01    0.1250E-01    0.1250E-01
                  0.1800E+01    0.1250E-01    0.1250E-01
                  0.1825E+01    0.1250E-01    0.1250E-01
                  0.1850E+01    0.1250E-01    0.1250E-01
                  0.1876E+01    0.1250E-01    0.1250E-01
                  0.1900E+01    0.1250E-01    0.1250E-01
                  0.1932E+01    0.1250E-01    0.1250E-01
                  0.1961E+01    0.1250E-01    0.1250E-01
                  0.1992E+01    0.1250E-01    0.1250E-01
                  0.2022E+01    0.1250E-01    0.1250E-01
                  0.2051E+01    0.1250E-01    0.1250E-01
                  0.2076E+01    0.1250E-01    0.1250E-01
                  0.2101E+01    0.1250E-01    0.1250E-01
                  0.2127E+01    0.1250E-01    0.1250E-01
                  0.2154E+01    0.1250E-01    0.1250E-01
                  0.2185E+01    0.1250E-01    0.1250E-01
                  0.2214E+01    0.1250E-01    0.1250E-01
                  0.2241E+01    0.1250E-01    0.1250E-01
                  0.2271E+01    0.1250E-01    0.1250E-01
                  0.2299E+01    0.1250E-01    0.1250E-01
                  0.2324E+01    0.1250E-01    0.1250E-01
                  0.2350E+01    0.1250E-01    0.1250E-01
                  0.2377E+01    0.1250E-01    0.1250E-01
                  0.2403E+01    0.1250E-01    0.1250E-01
                  0.2433E+01    0.1250E-01    0.1250E-01
                  0.2460E+01    0.1250E-01    0.1250E-01
                  0.2491E+01    0.1250E-01    0.1250E-01
                  0.2519E+01    0.1250E-01    0.1250E-01
                  0.2547E+01    0.1250E-01    0.1250E-01
                  0.2573E+01    0.1250E-01    0.1250E-01
                  0.2600E+01    0.1250E-01    0.1250E-01
                  0.2625E+01    0.1250E-01    0.1250E-01
                  0.2651E+01    0.1250E-01    0.1250E-01
                  0.2683E+01    0.1250E-01    0.1250E-01
                  0.2712E+01    0.1250E-01    0.1250E-01
                  0.2741E+01    0.1250E-01    0.1250E-01
                  0.2772E+01    0.1250E-01    0.1250E-01
                  0.2799E+01    0.1250E-01    0.1250E-01
                  0.2825E+01    0.1250E-01    0.1250E-01
                  0.2850E+01    0.1250E-01    0.1250E-01
                  0.2875E+01    0.1250E-01    0.1250E-01
                  0.2901E+01    0.1250E-01    0.1250E-01
                  0.2935E+01    0.1250E-01    0.1250E-01
                  0.2963E+01    0.1250E-01    0.1250E-01
                  0.2991E+01    0.1250E-01    0.1250E-01
                  0.3019E+01    0.1250E-01    0.1250E-01
                  0.3048E+01    0.1250E-01    0.1250E-01
                  0.3072E+01    0.1250E-01    0.1250E-01
                  0.3097E+01    0.1250E-01    0.1250E-01
                  0.3127E+01    0.1250E-01    0.1250E-01
                  0.3157E+01    0.1250E-01    0.1250E-01
                  0.3180E+01    0.1250E-01    0.1250E-01
                  0.3204E+01    0.1250E-01    0.1250E-01
                  0.3242E+01    0.1250E-01    0.1250E-01
                  0.3272E+01    0.1250E-01    0.1250E-01
                  0.3299E+01    0.1250E-01    0.1250E-01
                  0.3324E+01    0.1250E-01    0.1250E-01
                  0.3348E+01    0.1250E-01    0.1250E-01
                  0.3376E+01    0.1250E-01    0.1250E-01
                  0.3404E+01    0.1250E-01    0.1250E-01
                  0.3437E+01    0.1250E-01    0.1250E-01
                  0.3467E+01    0.1250E-01    0.1250E-01
                  0.3496E+01    0.1250E-01    0.1250E-01
                  0.3523E+01    0.1250E-01    0.1250E-01
                  0.3550E+01    0.1250E-01    0.1250E-01
                  0.3577E+01    0.1250E-01    0.1250E-01
                  0.3604E+01    0.1250E-01    0.1250E-01
                  0.3633E+01    0.1250E-01    0.1250E-01
                  0.3663E+01    0.1250E-01    0.1250E-01
                  0.3696E+01    0.1250E-01    0.1250E-01
                  0.3723E+01    0.1250E-01    0.1250E-01
                  0.3746E+01    0.1250E-01    0.1250E-01
                  0.3774E+01    0.1250E-01    0.1250E-01
                  0.3801E+01    0.1250E-01    0.1250E-01
                  0.3827E+01    0.1250E-01    0.1250E-01
                  0.3853E+01    0.1250E-01    0.1250E-01
                  0.3882E+01    0.1250E-01    0.1250E-01
                  0.3911E+01    0.1250E-01    0.1250E-01
                  0.3941E+01    0.1250E-01    0.1250E-01
                  0.3969E+01    0.1250E-01    0.1250E-01
                  0.3994E+01    0.1250E-01    0.1250E-01
                  0.4019E+01    0.1250E-01    0.1250E-01
                  0.4046E+01    0.1250E-01    0.1250E-01
                  0.4073E+01    0.1250E-01    0.1250E-01
                  0.4100E+01    0.1250E-01    0.1250E-01
                  0.4125E+01    0.1250E-01    0.1250E-01
                  0.4152E+01    0.1250E-01    0.1250E-01
                  0.4177E+01    0.1250E-01    0.1250E-01
                  0.4203E+01    0.1250E-01    0.1250E-01
                  0.4228E+01    0.1250E-01    0.1250E-01
                  0.4253E+01    0.1250E-01    0.1250E-01
                  0.4278E+01    0.1250E-01    0.1250E-01
                  0.4303E+01    0.1250E-01    0.1250E-01
                  0.4328E+01    0.1250E-01    0.1250E-01
                  0.4353E+01    0.1250E-01    0.1250E-01
                  0.4378E+01    0.1250E-01    0.1250E-01
                  0.4404E+01    0.1250E-01    0.1250E-01
                  0.4428E+01    0.1250E-01    0.1250E-01
                  0.4454E+01    0.1250E-01    0.1250E-01
                  0.4477E+01    0.1250E-01    0.1250E-01
                  0.4503E+01    0.1250E-01    0.1250E-01
                  0.4527E+01    0.1250E-01    0.1250E-01
                  0.4552E+01    0.1250E-01    0.1250E-01
                  0.4576E+01    0.1250E-01    0.1250E-01
                  0.4601E+01    0.1250E-01    0.1250E-01
                  0.4624E+01    0.1250E-01    0.1250E-01
                  0.4649E+01    0.1250E-01    0.1250E-01
[...]
        <PointData Scalars="scalars">
            <DataArray type="Float32" Name="seqv" Format="ascii">
                  0.0000E+00
                  0.0000E+00
                  0.0000E+00
                  0.0000E+00
                  0.0000E+00
                  0.0000E+00
                  0.0000E+00
                  0.0000E+00
                  0.0000E+00
                  0.0000E+00
                  0.0000E+00
                  0.0000E+00
                  0.0000E+00
                  0.0000E+00
                  0.0000E+00
                  0.0000E+00
                  0.0000E+00
                  0.0000E+00
                  0.0000E+00
                  0.0000E+00
                  0.0000E+00
                  0.0000E+00
                  0.0000E+00
                  0.0000E+00
                  0.0000E+00
                  0.0000E+00
                  0.0000E+00
                  0.0000E+00
                  0.0000E+00
                  0.0000E+00
                  0.0000E+00
                  0.0000E+00
                  0.0000E+00
                  0.0000E+00
                  0.0000E+00
                  0.0000E+00
                  0.0000E+00
                  0.0000E+00
                  0.0000E+00
                  0.0000E+00
                  0.0000E+00
                  0.0000E+00
                  0.0000E+00
                  0.0000E+00
                  0.0000E+00
                  0.0000E+00
                  0.0000E+00
                  0.0000E+00
                  0.0000E+00
                  0.0000E+00
                  0.0000E+00
                  0.0000E+00
                  0.0000E+00
                  0.0000E+00
                  0.0000E+00
                  0.0000E+00
                  0.0000E+00
                  0.0000E+00
                  0.0000E+00
                  0.0000E+00
                  0.0000E+00
                  0.0000E+00
                  0.0000E+00
                  0.0000E+00
                  0.0000E+00
                  0.0000E+00
                  0.0000E+00
                  0.0000E+00
                  0.0000E+00
                  0.0000E+00
                  0.0000E+00
                  0.0000E+00
                  0.0000E+00
                  0.0000E+00
                  0.0000E+00
                  0.0000E+00
                  0.0000E+00
                  0.0000E+00
                  0.0000E+00
                  0.0000E+00
                  0.0000E+00
                  0.0000E+00
                  0.0000E+00
                  0.0000E+00
                  0.0000E+00
                  0.0000E+00
                  0.0000E+00
                  0.0000E+00
                  0.0000E+00
                  0.0000E+00
                  0.0000E+00
                  0.0000E+00
                  0.0000E+00
                  0.0000E+00
                  0.0000E+00
                  0.0000E+00
                  0.0000E+00
                  0.0000E+00
                  0.0000E+00
                  0.0000E+00
                  0.0000E+00
                  0.0000E+00
                  0.0000E+00
                  0.0000E+00
                  0.0000E+00
                  0.0000E+00
                  0.0000E+00
                  0.0000E+00
                  0.0000E+00
                  0.0000E+00
                  0.0000E+00
                  0.0000E+00
                  0.0000E+00
                  0.0000E+00
                  0.0000E+00
                  0.0000E+00
                  0.0000E+00
                  0.0000E+00
                  0.0000E+00
                  0.0000E+00
                  0.0000E+00
                  0.0000E+00
                  0.0000E+00
                  0.0000E+00
                  0.0000E+00
                  0.0000E+00
                  0.0000E+00
                  0.0000E+00
                  0.0000E+00
                  0.0000E+00
                  0.0000E+00
                  0.0000E+00
                  0.0000E+00
                  0.0000E+00
                  0.0000E+00
                  0.0000E+00
                  0.0000E+00
                  0.0000E+00
                  0.0000E+00
                  0.0000E+00
                  0.0000E+00
                  0.0000E+00
                  0.0000E+00
                  0.0000E+00
                  0.0000E+00
                  0.0000E+00
                  0.0000E+00
                  0.0000E+00
                  0.0000E+00
                  0.0000E+00
                  0.0000E+00
                  0.0000E+00
                  0.0000E+00
                  0.0000E+00
                  0.0000E+00
                  0.0000E+00
                  0.0000E+00
                  0.0000E+00
                  0.0000E+00
                  0.0000E+00
                  0.0000E+00
                  0.0000E+00
                  0.0000E+00
                  0.0000E+00
                  0.0000E+00
                  0.0000E+00
                  0.0000E+00
                  0.0000E+00
                  0.0000E+00
                  0.0000E+00
                  0.0000E+00
                  0.0000E+00
                  0.0000E+00
                  0.0000E+00
                  0.0000E+00
                  0.0000E+00
                  0.0000E+00
                  0.0000E+00
                  0.0000E+00
                  0.0000E+00
                  0.0000E+00
                  0.0000E+00
                  0.0000E+00
                  0.0000E+00
                  0.0000E+00
                  0.0000E+00
                  0.0000E+00
                  0.0000E+00
                  0.0000E+00
                  0.0000E+00
                  0.0000E+00
                  0.0000E+00
                  0.0000E+00
                  0.0000E+00
                  0.0000E+00
                  0.0000E+00
                  0.0000E+00
                  0.0000E+00
                  0.0000E+00
                  0.0000E+00
                  0.0000E+00
                  0.0000E+00
                  0.0000E+00
                  0.0000E+00
                  0.0000E+00
                  0.0000E+00
                  0.0000E+00
                  0.0000E+00
                  0.0000E+00
                  0.0000E+00
                  0.0000E+00
                  0.0000E+00
                  0.0000E+00
                  0.0000E+00
                  0.0000E+00
                  0.0000E+00
                  0.0000E+00
                  0.0000E+00
                  0.0000E+00
                  0.0000E+00
                  0.0000E+00
                  0.0000E+00
                  0.0000E+00
                  0.0000E+00
                  0.0000E+00
                  0.0000E+00
                  0.0000E+00
                  0.0000E+00
                  0.0000E+00
                  0.0000E+00
                  0.0000E+00
                  0.0000E+00
                  0.0000E+00
                  0.0000E+00
                  0.0000E+00
                  0.0000E+00
                  0.0000E+00
                  0.0000E+00
                  0.0000E+00
                  0.0000E+00
                  0.0000E+00
                  0.0000E+00
                  0.0000E+00
                  0.0000E+00
                  0.0000E+00
                  0.0000E+00
                  0.0000E+00
                  0.0000E+00
                  0.0000E+00
                  0.0000E+00
                  0.0000E+00
                  0.0000E+00
                  0.0000E+00
                  0.0000E+00
                  0.0000E+00
                  0.0000E+00
                  0.0000E+00
                  0.0000E+00
                  0.0000E+00
                  0.0000E+00
                  0.0000E+00
                  0.0000E+00
                  0.0000E+00
                  0.0000E+00
                  0.0000E+00
                  0.0000E+00
                  0.0000E+00
                  0.0000E+00
                  0.0000E+00
                  0.0000E+00
                  0.0000E+00
                  0.0000E+00
                  0.0000E+00
                  0.0000E+00
                  0.0000E+00
                  0.0000E+00
                  0.0000E+00
                  0.0000E+00
                  0.0000E+00
                  0.0000E+00
                  0.0000E+00
                  0.0000E+00
                  0.0000E+00
                  0.0000E+00
                  0.0000E+00
                  0.0000E+00
                  0.0000E+00
                  0.0000E+00
                  0.0000E+00
                  0.0000E+00
                  0.0000E+00
                  0.0000E+00
                  0.0000E+00
                  0.0000E+00
                  0.0000E+00
                  0.0000E+00
                  0.0000E+00
                  0.0000E+00
                  0.0000E+00
                  0.0000E+00
                  0.0000E+00
                  0.0000E+00
                  0.0000E+00
                  0.0000E+00
                  0.0000E+00
                  0.0000E+00
                  0.0000E+00
                  0.0000E+00
                  0.0000E+00
                  0.0000E+00
                  0.0000E+00
                  0.0000E+00
                  0.0000E+00
                  0.0000E+00
                  0.0000E+00
                  0.0000E+00
                  0.0000E+00
                  0.0000E+00
                  0.0000E+00
                  0.0000E+00
                  0.0000E+00
                  0.0000E+00
                  0.0000E+00
                  0.0000E+00
                  0.0000E+00
                  0.0000E+00
                  0.0000E+00
                  0.0000E+00
                  0.0000E+00
                  0.0000E+00
                  0.0000E+00
                  0.0000E+00
                  0.0000E+00
                  0.0000E+00
                  0.0000E+00
                  0.0000E+00
                  0.0000E+00
                  0.0000E+00
                  0.0000E+00
                  0.0000E+00
                  0.0000E+00
                  0.0000E+00
                  0.0000E+00
                  0.0000E+00
                  0.0000E+00
                  0.0000E+00
                  0.0000E+00
                  0.0000E+00
                  0.0000E+00
                  0.0000E+00
                  0.0000E+00
                  0.0000E+00
                  0.0000E+00
                  0.0000E+00
                  0.0000E+00
                  0.0000E+00
                  0.0000E+00
                  0.0000E+00
                  0.0000E+00
                  0.0000E+00
                  0.0000E+00
                  0.0000E+00
                  0.0000E+00
                  0.0000E+00
                  0.0000E+00
                  0.0000E+00
                  0.0000E+00
                  0.0000E+00
                  0.0000E+00
                  0.0000E+00
                  0.0000E+00
                  0.0000E+00
                  0.0000E+00
                  0.0000E+00
                  0.0000E+00
                  0.0000E+00
                  0.0000E+00
                  0.0000E+00
                  0.0000E+00
                  0.0000E+00
                  0.0000E+00
                  0.0000E+00
                  0.0000E+00
                  0.0000E+00
                  0.0000E+00
                  0.0000E+00
                  0.0000E+00
                  0.0000E+00
                  0.0000E+00
                  0.0000E+00
                  0.0000E+00
                  0.0000E+00
                  0.0000E+00
                  0.0000E+00
                  0.0000E+00
                  0.0000E+00
                  0.0000E+00
                  0.0000E+00
                  0.0000E+00
                  0.0000E+00
                  0.0000E+00
                  0.0000E+00
                  0.0000E+00
                  0.0000E+00
                  0.0000E+00
                  0.0000E+00
                  0.0000E+00
                  0.0000E+00
                  0.0000E+00
                  0.0000E+00
                  0.0000E+00
                  0.0000E+00
                  0.0000E+00
                  0.0000E+00
                  0.0000E+00
                  0.0000E+00
                  0.0000E+00
                  0.0000E+00
                  0.0000E+00
                  0.0000E+00
                  0.0000E+00
                  0.0000E+00
                  0.0000E+00
                  0.0000E+00
                  0.0000E+00
                  0.0000E+00
                  0.0000E+00
                  0.0000E+00
                  0.0000E+00
                  0.0000E+00
                  0.0000E+00
                  0.0000E+00
                  0.0000E+00
                  0.0000E+00
                  0.0000E+00
                  0.0000E+00
                  0.0000E+00
                  0.0000E+00
                  0.0000E+00
                  0.0000E+00
                  0.0000E+00
                  0.0000E+00
                  0.0000E+00
                  0.0000E+00
                  0.0000E+00
                  0.0000E+00
                  0.0000E+00
                  0.0000E+00
                  0.0000E+00
                  0.0000E+00
                  0.0000E+00
                  0.0000E+00
                  0.0000E+00
                  0.0000E+00
                  0.0000E+00
                  0.0000E+00
                  0.0000E+00
                  0.0000E+00
                  0.0000E+00
                  0.0000E+00
                  0.0000E+00
                  0.0000E+00
                  0.0000E+00
                  0.0000E+00
                  0.0000E+00
                  0.0000E+00
                  0.0000E+00
                  0.0000E+00
                  0.0000E+00
                  0.0000E+00
                  0.0000E+00
                  0.0000E+00
                  0.0000E+00
                  0.0000E+00
                  0.0000E+00
                  0.0000E+00
                  0.0000E+00
                  0.0000E+00
                  0.0000E+00
                  0.0000E+00
                  0.0000E+00
                  0.0000E+00
                  0.0000E+00
                  0.0000E+00
                  0.0000E+00
                  0.0000E+00
                  0.0000E+00
                  0.0000E+00
                  0.0000E+00
                  0.0000E+00
                  0.0000E+00
                  0.0000E+00
                  0.0000E+00
                  0.0000E+00
                  0.0000E+00
                  0.0000E+00
                  0.0000E+00
                  0.0000E+00
                  0.0000E+00
                  0.0000E+00
                  0.0000E+00
                  0.0000E+00
                  0.0000E+00
                  0.0000E+00
                  0.0000E+00
                  0.0000E+00
                  0.0000E+00
                  0.0000E+00
                  0.0000E+00
                  0.0000E+00
                  0.0000E+00
                  0.0000E+00
                  0.0000E+00
                  0.0000E+00
                  0.0000E+00
                  0.0000E+00
                  0.0000E+00
                  0.0000E+00
                  0.0000E+00
                  0.0000E+00
                  0.0000E+00
                  0.0000E+00
                  0.0000E+00
                  0.0000E+00
                  0.0000E+00
                  0.0000E+00
                  0.0000E+00
                  0.0000E+00
                  0.0000E+00
                  0.0000E+00
                  0.0000E+00
                  0.0000E+00
                  0.0000E+00
                  0.0000E+00
                  0.0000E+00
                  0.0000E+00
                  0.0000E+00
                  0.0000E+00
                  0.0000E+00
                  0.0000E+00
                  0.0000E+00
                  0.0000E+00
                  0.0000E+00
                  0.0000E+00
                  0.0000E+00
                  0.0000E+00
                  0.0000E+00
                  0.0000E+00
                  0.0000E+00
                  0.0000E+00
                  0.0000E+00
                  0.0000E+00
                  0.0000E+00
                  0.0000E+00
                  0.0000E+00
                  0.0000E+00
                  0.0000E+00
                  0.0000E+00
                  0.0000E+00
                  0.0000E+00
                  0.0000E+00
                  0.0000E+00
                  0.0000E+00
                  0.0000E+00
                  0.0000E+00
                  0.0000E+00
                  0.0000E+00
                  0.0000E+00
                  0.0000E+00
                  0.0000E+00
                  0.0000E+00
                  0.0000E+00
                  0.0000E+00
                  0.0000E+00
                  0.0000E+00
                  0.0000E+00
                  0.0000E+00
                  0.0000E+00
                  0.0000E+00
                  0.0000E+00
                  0.0000E+00
                  0.0000E+00
                  0.0000E+00
                  0.0000E+00
                  0.0000E+00
                  0.0000E+00
                  0.0000E+00
                  0.0000E+00
                  0.0000E+00
                  0.0000E+00
                  0.0000E+00
                  0.0000E+00
                  0.0000E+00
                  0.0000E+00
                  0.0000E+00
                  0.0000E+00
                  0.0000E+00
                  0.0000E+00
                  0.0000E+00
                  0.0000E+00
                  0.0000E+00
                  0.0000E+00
                  0.0000E+00
                  0.0000E+00
                  0.0000E+00
                  0.0000E+00
                  0.0000E+00
                  0.0000E+00
                  0.0000E+00
                  0.0000E+00
                  0.0000E+00
                  0.0000E+00
                  0.0000E+00
                  0.0000E+00
                  0.0000E+00
                  0.0000E+00
                  0.0000E+00
                  0.0000E+00
                  0.0000E+00
                  0.0000E+00
                  0.0000E+00
                  0.0000E+00
                  0.0000E+00
                  0.0000E+00
                  0.0000E+00
                  0.0000E+00
                  0.0000E+00
                  0.0000E+00
                  0.0000E+00
                  0.0000E+00
                  0.0000E+00
                  0.0000E+00
                  0.0000E+00
                  0.0000E+00
                  0.0000E+00
                  0.0000E+00
                  0.0000E+00
                  0.0000E+00
                  0.0000E+00
                  0.0000E+00
                  0.0000E+00
                  0.0000E+00
                  0.0000E+00
                  0.0000E+00
                  0.0000E+00
                  0.0000E+00
                  0.0000E+00
                  0.0000E+00
                  0.0000E+00
                  0.0000E+00
                  0.0000E+00
                  0.0000E+00
                  0.0000E+00
                  0.0000E+00
                  0.0000E+00
                  0.0000E+00
                  0.0000E+00
                  0.0000E+00
                  0.0000E+00
                  0.0000E+00
                  0.0000E+00
                  0.0000E+00
                  0.0000E+00
                  0.0000E+00
                  0.0000E+00
                  0.0000E+00
                  0.0000E+00
                  0.0000E+00
                  0.0000E+00
                  0.0000E+00
                  0.0000E+00
                  0.0000E+00
                  0.0000E+00
                  0.0000E+00
                  0.0000E+00
                  0.0000E+00
                  0.0000E+00
                  0.0000E+00
                  0.0000E+00
                  0.0000E+00
                  0.0000E+00
                  0.0000E+00
                  0.0000E+00
                  0.0000E+00
                  0.0000E+00
                  0.0000E+00