<?xml version="1.0"?>
<VTKFile type="UnstructuredGrid" version="0.1" byte_order="BigEndian">
<UnstructuredGrid>
    <Piece NumberOfPoints="4000" NumberOfCells="4000">
        <Points>
             <DataArray type="Float32" NumberOfComponents="3" Format="ascii">
                  0.2067E-01    0.1250E-01    0.1250E-01
                  0.4916E-01    0.1250E-01    0.1250E-01
                  0.8264E-01    0.1250E-01    0.1250E-01
                  0.9552E-01    0.1250E-01    0.1250E-01
                  0.1381E+00    0.1250E-01    0.1250E-01
                  0.1593E+00    0.1250E-01    0.1250E-01
                  0.1851E+00    0.1250E-01    0.1250E-01
                  0.2104E+00    0.1250E-01    0.1250E-01
                  0.2212E+00    0.1250E-01    0.1250E-01
                  0.2308E+00    0.1250E-01    0.1250E-01
                  0.2760E+00    0.1250E-01    0.1250E-01
                  0.3038E+00    0.1250E-01    0.1250E-01
                  0.3429E+00    0.1250E-01    0.1250E-01
                  0.3834E+00    0.1250E-01    0.1250E-01
                  0.4170E+00    0.1250E-01    0.1250E-01
                  0.4383E+00    0.1250E-01    0.1250E-01
                  0.4686E+00    0.1250E-01    0.1250E-01
                  0.4957E+00    0.1250E-01    0.1250E-01
                  0.5166E+00    0.1250E-01    0.1250E-01
                  0.5855E+00    0.1250E-01    0.1250E-01
                  0.6206E+00    0.1250E-01    0.1250E-01
                  0.6396E+00    0.1250E-01    0.1250E-01
                  0.6596E+00    0.1250E-01    0.1250E-01
                  0.6843E+00    0.1250E-01    0.1250E-01
                  0.6994E+00    0.1250E-01    0.1250E-01
                  0.7348E+00    0.1250E-01    0.1250E-01
                  0.7460E+00    0.1250E-01    0.1250E-01
                  0.7692E+00    0.1250E-01    0.1250E-01
                  0.8025E+00    0.1250E-01    0.1250E-01
                  0.8229E+00    0.1250E-01    0.1250E-01
                  0.8407E+00    0.1250E-01    0.1250E-01
                  0.8668E+00    0.1250E-01    0.1250E-01
                  0.8976E+00    0.1250E-01    0.1250E-01
                  0.9142E+00    0.1250E-01    0.1250E-01
                  0.9290E+00    0.1250E-01    0.1250E-01
                  0.9648E+00    0.1250E-01    0.1250E-01
                  0.1004E+01    0.1250E-01    0.1250E-01
                  0.1033E+01    0.1250E-01    0.1250E-01
                  0.1079E+01    0.1250E-01    0.1250E-01
                  0.1115E+01    0.1250E-01    0.1250E-01
                  0.1143E+01    0.1250E-01    0.1250E-01
                  0.1172E+01    0.1250E-01    0.1250E-01
                  0.1186E+01    0.1250E-01    0.1250E-01
                  0.1213E+01    0.1250E-01    0.1250E-01
                  0.1238E+01    0.1250E-01    0.1250E-01
                  0.1271E+01    0.1250E-01    0.1250E-01
                  0.1324E+01    0.1250E-01    0.1250E-01
                  0.1347E+01    0.1250E-01    0.1250E-01
                  0.1362E+01    0.1250E-01    0.1250E-01
                  0.1373E+01    0.1250E-01    0.1250E-01
                  0.1400E+01    0.1250E-01    0.1250E-01
                  0.1429E+01    0.1250E-01    0.1250E-01
                  0.1455E+01    0.1250E-01    0.1250E-01
                  0.1478E+01    0.1250E-01    0.1250E-01
                  0.1513E+01    0.1250E-01    0.1250E-01
                  0.1528E+01    0.1250E-01    0.1250E-01
                  0.1560E+01    0.1250E-01    0.1250E-01
                  0.1577E+01    0.1250E-01    0.1250E-01
                  0.1592E+01    0.1250E-01    0.1250E-01
                  0.1618E+01    0.1250E-01    0.1250E-01
                  0.1645E+01    0.1250E-01    0.1250E-01
                  0.1685E+01    0.1250E-01    0.1250E-01
                  0.1715E+01    0.1250E-01    0.1250E-01
                  0.1758E+01    0.1250E-01    0.1250E-01
                  0.1775E+01    0.1250E-01    0.1250E-01
                  0.1815E+01    0.1250E-01    0.1250E-01
                  0.1823E+01    0.1250E-01    0.1250E-01
                  0.1838E+01    0.1250E-01    0.1250E-01
                  0.1855E+01    0.1250E-01    0.1250E-01
                  0.1886E+01    0.1250E-01    0.1250E-01
                  0.1906E+01    0.1250E-01    0.1250E-01
                  0.1929E+01    0.1250E-01    0.1250E-01
                  0.1949E+01    0.1250E-01    0.1250E-01
                  0.1986E+01    0.1250E-01    0.1250E-01
                  0.2014E+01    0.1250E-01    0.1250E-01
                  0.2042E+01    0.1250E-01    0.1250E-01
                  0.2067E+01    0.1250E-01    0.1250E-01
                  0.2078E+01    0.1250E-01    0.1250E-01
                  0.2099E+01    0.1250E-01    0.1250E-01
                  0.2161E+01    0.1250E-01    0.1250E-01
                  0.2194E+01    0.1250E-01    0.1250E-01
                  0.2221E+01    0.1250E-01    0.1250E-01
                  0.2246E+01    0.1250E-01    0.1250E-01
                  0.2261E+01    0.1250E-01    0.1250E-01
                  0.2283E+01    0.1250E-01    0.1250E-01
                  0.2294E+01    0.1250E-01    0.1250E-01
                  0.2316E+01    0.1250E-01    0.1250E-01
                  0.2367E+01    0.1250E-01    0.1250E-01
                  0.2398E+01    0.1250E-01    0.1250E-01
                  0.2414E+01    0.1250E-01    0.1250E-01
                  0.2429E+01    0.1250E-01    0.1250E-01
                  0.2449E+01    0.1250E-01    0.1250E-01
                  0.2503E+01    0.1250E-01    0.1250E-01
                  0.2548E+01    0.1250E-01    0.1250E-01
                  0.2593E+01    0.1250E-01    0.1250E-01
                  0.2635E+01    0.1250E-01    0.1250E-01
                  0.2677E+01    0.1250E-01    0.1250E-01
                  0.2702E+01    0.1250E-01    0.1250E-01
                  0.2720E+01    0.1250E-01    0.1250E-01
                  0.2743E+01    0.1250E-01    0.1250E-01
                  0.2755E+01    0.1250E-01    0.1250E-01
                  0.2777E+01    0.1250E-01    0.1250E-01
                  0.2795E+01    0.1250E-01    0.1250E-01
                  0.2844E+01    0.1250E-01    0.1250E-01
                  0.2896E+01    0.1250E-01    0.1250E-01
                  0.2917E+01    0.1250E-01    0.1250E-01
                  0.2934E+01    0.1250E-01    0.1250E-01
                  0.2954E+01    0.1250E-01    0.1250E-01
                  0.2990E+01    0.1250E-01    0.1250E-01
                  0.3016E+01    0.1250E-01    0.1250E-01
                  0.3036E+01    0.1250E-01    0.1250E-01
                  0.3055E+01    0.1250E-01    0.1250E-01
                  0.3097E+01    0.1250E-01    0.1250E-01
                  0.3144E+01    0.1250E-01    0.1250E-01
                  0.3175E+01    0.1250E-01    0.1250E-01
                  0.3211E+01    0.1250E-01    0.1250E-01
                  0.3228E+01    0.1250E-01    0.1250E-01
                  0.3284E+01    0.1250E-01    0.1250E-01
                  0.3296E+01    0.1250E-01    0.1250E-01
                  0.3318E+01    0.1250E-01    0.1250E-01
                  0.3343E+01    0.1250E-01    0.1250E-01
                  0.3369E+01    0.1250E-01    0.1250E-01
                  0.3382E+01    0.1250E-01    0.1250E-01
                  0.3411E+01    0.1250E-01    0.1250E-01
                  0.3450E+01    0.1250E-01    0.1250E-01
                  0.3467E+01    0.1250E-01    0.1250E-01
                  0.3493E+01    0.1250E-01    0.1250E-01
                  0.3503E+01    0.1250E-01    0.1250E-01
                  0.3527E+01    0.1250E-01    0.1250E-01
                  0.3548E+01    0.1250E-01    0.1250E-01
                  0.3564E+01    0.1250E-01    0.1250E-01
                  0.3611E+01    0.1250E-01    0.1250E-01
                  0.3640E+01    0.1250E-01    0.1250E-01
                  0.3660E+01    0.1250E-01    0.1250E-01
                  0.3690E+01    0.1250E-01    0.1250E-01
                  0.3727E+01    0.1250E-01    0.1250E-01
                  0.3748E+01    0.1250E-01    0.1250E-01
                  0.3775E+01    0.1250E-01    0.1250E-01
                  0.3807E+01    0.1250E-01    0.1250E-01
                  0.3822E+01    0.1250E-01    0.1250E-01
                  0.3847E+01    0.1250E-01    0.1250E-01
                  0.3867E+01    0.1250E-01    0.1250E-01
                  0.3891E+01    0.1250E-01    0.1250E-01
                  0.3902E+01    0.1250E-01    0.1250E-01
                  0.3933E+01    0.1250E-01    0.1250E-01
                  0.3960E+01    0.1250E-01    0.1250E-01
                  0.3979E+01    0.1250E-01    0.1250E-01
                  0.4012E+01    0.1250E-01    0.1250E-01
                  0.4044E+01    0.1250E-01    0.1250E-01
                  0.4072E+01    0.1250E-01    0.1250E-01
                  0.4098E+01    0.1250E-01    0.1250E-01
                  0.4119E+01    0.1250E-01    0.1250E-01
                  0.4143E+01    0.1250E-01    0.1250E-01
                  0.4188E+01    0.1250E-01    0.1250E-01
                  0.4203E+01    0.1250E-01    0.1250E-01
                  0.4220E+01    0.1250E-01    0.1250E-01
                  0.4249E+01    0.1250E-01    0.1250E-01
                  0.4291E+01    0.1250E-01    0.1250E-01
                  0.4308E+01    0.1250E-01    0.1250E-01
                  0.4332E+01    0.1250E-01    0.1250E-01
                  0.4352E+01    0.1250E-01    0.1250E-01
                  0.4375E+01    0.1250E-01    0.1250E-01
                  0.4396E+01    0.1250E-01    0.1250E-01
                  0.4420E+01    0.1250E-01    0.1250E-01
                  0.4449E+01    0.1250E-01    0.1250E-01
                  0.4475E+01    0.1250E-01    0.1250E-01
                  0.4512E+01    0.1250E-01    0.1250E-01
                  0.4523E+01    0.1250E-01    0.1250E-01
                  0.4545E+01    0.1250E-01    0.1250E-01
                  0.4575E+01    0.1250E-01    0.1250E-01
[...]
        <PointData Scalars="scalars">
            <DataArray type="Float32" Name="seqv" Format="ascii">
                  0.0000E+00
                  0.0000E+00
                  0.0000E+00
                  0.0000E+00
                  0.0000E+00
                  0.0000E+00
                  0.0000E+00
                  0.0000E+00
                  0.0000E+00
                  0.0000E+00
                  0.0000E+00
                  0.0000E+00
                  0.0000E+00
                  0.0000E+00
                  0.0000E+00
                  0.0000E+00
                  0.0000E+00
                  0.0000E+00
                  0.0000E+00
                  0.0000E+00
                  0.0000E+00
                  0.0000E+00
                  0.0000E+00
                  0.0000E+00
                  0.0000E+00
                  0.0000E+00
                  0.0000E+00
                  0.0000E+00
                  0.0000E+00
                  0.0000E+00
                  0.0000E+00
                  0.0000E+00
                  0.0000E+00
                  0.0000E+00
                  0.0000E+00
                  0.0000E+00
                  0.0000E+00
                  0.0000E+00
                  0.0000E+00
                  0.0000E+00
                  0.0000E+00
                  0.0000E+00
                  0.0000E+00
                  0.0000E+00
                  0.0000E+00
                  0.0000E+00
                  0.0000E+00
                  0.0000E+00
                  0.0000E+00
                  0.0000E+00
                  0.0000E+00
                  0.0000E+00
                  0.0000E+00
                  0.0000E+00
                  0.0000E+00
                  0.0000E+00
                  0.0000E+00
                  0.0000E+00
                  0.0000E+00
                  0.0000E+00
                  0.0000E+00
                  0.0000E+00
                  0.0000E+00
                  0.0000E+00
                  0.0000E+00
                  0.0000E+00
                  0.0000E+00
                  0.0000E+00
                  0.0000E+00
                  0.0000E+00
                  0.0000E+00
                  0.0000E+00
                  0.0000E+00
                  0.0000E+00
                  0.0000E+00
                  0.0000E+00
                  0.0000E+00
                  0.0000E+00
                  0.0000E+00
                  0.0000E+00
                  0.0000E+00
                  0.0000E+00
                  0.0000E+00
                  0.0000E+00
                  0.0000E+00
                  0.0000E+00
                  0.0000E+00
                  0.0000E+00
                  0.0000E+00
                  0.0000E+00
                  0.0000E+00
                  0.0000E+00
                  0.0000E+00
                  0.0000E+00
                  0.0000E+00
                  0.0000E+00
                  0.0000E+00
                  0.0000E+00
                  0.0000E+00
                  0.0000E+00
                  0.0000E+00
                  0.0000E+00
                  0.0000E+00
                  0.0000E+00
                  0.0000E+00
                  0.0000E+00
                  0.0000E+00
                  0.0000E+00
                  0.0000E+00
                  0.0000E+00
                  0.0000E+00
                  0.0000E+00
                  0.0000E+00
                  0.0000E+00
                  0.0000E+00
                  0.0000E+00
                  0.0000E+00
                  0.0000E+00
                  0.0000E+00
                  0.0000E+00
                  0.0000E+00
                  0.0000E+00
                  0.0000E+00
                  0.0000E+00
                  0.0000E+00
                  0.0000E+00
                  0.0000E+00
                  0.0000E+00
                  0.0000E+00
                  0.0000E+00
                  0.0000E+00
                  0.0000E+00
                  0.0000E+00
                  0.0000E+00
                  0.0000E+00
                  0.0000E+00
                  0.0000E+00
                  0.0000E+00
                  0.0000E+00
                  0.0000E+00
                  0.0000E+00
                  0.0000E+00
                  0.0000E+00
                  0.0000E+00
                  0.0000E+00
                  0.0000E+00
                  0.0000E+00
                  0.0000E+00
                  0.0000E+00
                  0.0000E+00
                  0.0000E+00
                  0.0000E+00
                  0.0000E+00
                  0.0000E+00
                  0.0000E+00
                  0.0000E+00
                  0.0000E+00
                  0.0000E+00
                  0.0000E+00
                  0.0000E+00
                  0.0000E+00
                  0.0000E+00
                  0.0000E+00
                  0.0000E+00
                  0.0000E+00
                  0.0000E+00
                  0.0000E+00
                  0.0000E+00
                  0.0000E+00
                  0.0000E+00
                  0.0000E+00
                  0.0000E+00
                  0.0000E+00
                  0.0000E+00
                  0.0000E+00
                  0.0000E+00
                  0.0000E+00
                  0.0000E+00
                  0.0000E+00
                  0.0000E+00
                  0.0000E+00
                  0.0000E+00
                  0.0000E+00
                  0.0000E+00
                  0.0000E+00
                  0.0000E+00
                  0.0000E+00
                  0.0000E+00
                  0.0000E+00
                  0.0000E+00
                  0.0000E+00
                  0.0000E+00
                  0.0000E+00
                  0.0000E+00
                  0.0000E+00
                  0.0000E+00
                  0.0000E+00
                  0.0000E+00
                  0.0000E+00
                  0.0000E+00
                  0.0000E+00
                  0.0000E+00
                  0.0000E+00
                  0.0000E+00
                  0.0000E+00
                  0.0000E+00
                  0.0000E+00
                  0.0000E+00
                  0.0000E+00
                  0.0000E+00
                  0.0000E+00
                  0.0000E+00
                  0.0000E+00
                  0.0000E+00
                  0.0000E+00
                  0.0000E+00
                  0.0000E+00
                  0.0000E+00
                  0.0000E+00
                  0.0000E+00
                  0.0000E+00
                  0.0000E+00
                  0.0000E+00
                  0.0000E+00
                  0.0000E+00
                  0.0000E+00
                  0.0000E+00
                  0.0000E+00
                  0.0000E+00
                  0.0000E+00
                  0.0000E+00
                  0.0000E+00
                  0.0000E+00
                  0.0000E+00
                  0.0000E+00
                  0.0000E+00
                  0.0000E+00
                  0.0000E+00
                  0.0000E+00
                  0.0000E+00
                  0.0000E+00
                  0.0000E+00
                  0.0000E+00
                  0.0000E+00
                  0.0000E+00
                  0.0000E+00
                  0.0000E+00
                  0.0000E+00
                  0.0000E+00
                  0.0000E+00
                  0.0000E+00
                  0.0000E+00
                  0.0000E+00
                  0.0000E+00
                  0.0000E+00
                  0.0000E+00
                  0.0000E+00
                  0.0000E+00
                  0.0000E+00
                  0.0000E+00
                  0.0000E+00
                  0.0000E+00
                  0.0000E+00
                  0.0000E+00
                  0.0000E+00
                  0.0000E+00
                  0.0000E+00
                  0.0000E+00
                  0.0000E+00
                  0.0000E+00
                  0.0000E+00
                  0.0000E+00
                  0.0000E+00
                  0.0000E+00
                  0.0000E+00
                  0.0000E+00
                  0.0000E+00
                  0.0000E+00
                  0.0000E+00
                  0.0000E+00
                  0.0000E+00
                  0.0000E+00
                  0.0000E+00
                  0.0000E+00
                  0.0000E+00
                  0.0000E+00
                  0.0000E+00
                  0.0000E+00
                  0.0000E+00
                  0.0000E+00
                  0.0000E+00
                  0.0000E+00
                  0.0000E+00
                  0.0000E+00
                  0.0000E+00
                  0.0000E+00
                  0.0000E+00
                  0.0000E+00
                  0.0000E+00
                  0.0000E+00
                  0.0000E+00
                  0.0000E+00
                  0.0000E+00
                  0.0000E+00
                  0.0000E+00
                  0.0000E+00
                  0.0000E+00
                  0.0000E+00
                  0.0000E+00
                  0.0000E+00
                  0.0000E+00
                  0.0000E+00
                  0.0000E+00
                  0.0000E+00
                  0.0000E+00
                  0.0000E+00
                  0.0000E+00
                  0.0000E+00
                  0.0000E+00
                  0.0000E+00
                  0.0000E+00
                  0.0000E+00
                  0.0000E+00
                  0.0000E+00
                  0.0000E+00
                  0.0000E+00
                  0.0000E+00
                  0.0000E+00
                  0.0000E+00
                  0.0000E+00
                  0.0000E+00
                  0.0000E+00
                  0.0000E+00
                  0.0000E+00
                  0.0000E+00
                  0.0000E+00
                  0.0000E+00
                  0.0000E+00
                  0.0000E+00
                  0.0000E+00
                  0.0000E+00
                  0.0000E+00
                  0.0000E+00
                  0.0000E+00
                  0.0000E+00
                  0.0000E+00
                  0.0000E+00
                  0.0000E+00
                  0.0000E+00
                  0.0000E+00
                  0.0000E+00
                  0.0000E+00
                  0.0000E+00
                  0.0000E+00
                  0.0000E+00
                  0.0000E+00
                  0.0000E+00
                  0.0000E+00
                  0.0000E+00
                  0.0000E+00
                  0.0000E+00
                  0.0000E+00
                  0.0000E+00
                  0.0000E+00
                  0.0000E+00
                  0.0000E+00
                  0.0000E+00
                  0.0000E+00
                  0.0000E+00
                  0.0000E+00
                  0.0000E+00
                  0.0000E+00
                  0.0000E+00
                  0.0000E+00
                  0.0000E+00
                  0.0000E+00
                  0.0000E+00
                  0.0000E+00
                  0.0000E+00
                  0.0000E+00
                  0.0000E+00
                  0.0000E+00
                  0.0000E+00
                  0.0000E+00
                  0.0000E+00
                  0.0000E+00
                  0.0000E+00
                  0.0000E+00
                  0.0000E+00
                  0.0000E+00
                  0.0000E+00
                  0.0000E+00
                  0.0000E+00
                  0.0000E+00
                  0.0000E+00
                  0.0000E+00
                  0.0000E+00
                  0.0000E+00
                  0.0000E+00
                  0.0000E+00
                  0.0000E+00
                  0.0000E+00
                  0.0000E+00
                  0.0000E+00
                  0.0000E+00
                  0.0000E+00
                  0.0000E+00
                  0.0000E+00
                  0.0000E+00
                  0.0000E+00
                  0.0000E+00
                  0.0000E+00
                  0.0000E+00
                  0.0000E+00
                  0.0000E+00
                  0.0000E+00
                  0.0000E+00
                  0.0000E+00
                  0.0000E+00
                  0.0000E+00
                  0.0000E+00
                  0.0000E+00
                  0.0000E+00
                  0.0000E+00
                  0.0000E+00
                  0.0000E+00
                  0.0000E+00
                  0.0000E+00
                  0.0000E+00
                  0.0000E+00
                  0.0000E+00
                  0.0000E+00
                  0.0000E+00
                  0.0000E+00
                  0.0000E+00
                  0.0000E+00
                  0.0000E+00
                  0.0000E+00
                  0.0000E+00
                  0.0000E+00
                  0.0000E+00
                  0.0000E+00
                  0.0000E+00
                  0.0000E+00
                  0.0000E+00
                  0.0000E+00
                  0.0000E+00
                  0.0000E+00
                  0.0000E+00
                  0.0000E+00
                  0.0000E+00
                  0.0000E+00
                  0.0000E+00
                  0.0000E+00
                  0.0000E+00
                  0.0000E+00
                  0.0000E+00
                  0.0000E+00
                  0.0000E+00
                  0.0000E+00
                  0.0000E+00
                  0.0000E+00
                  0.0000E+00
                  0.0000E+00
                  0.0000E+00
                  0.0000E+00
                  0.0000E+00
                  0.0000E+00
                  0.0000E+00
                  0.0000E+00
                  0.0000E+00
                  0.0000E+00
                  0.0000E+00
                  0.0000E+00
                  0.0000E+00
                  0.0000E+00
                  0.0000E+00
                  0.0000E+00
                  0.0000E+00
                  0.0000E+00
                  0.0000E+00
                  0.0000E+00
                  0.0000E+00
                  0.0000E+00
                  0.0000E+00
                  0.0000E+00
                  0.0000E+00
                  0.0000E+00
                  0.0000E+00
                  0.0000E+00
                  0.0000E+00
                  0.0000E+00
                  0.0000E+00
                  0.0000E+00
                  0.0000E+00
                  0.0000E+00
                  0.0000E+00
                  0.0000E+00
                  0.0000E+00
                  0.0000E+00
                  0.0000E+00
                  0.0000E+00
                  0.0000E+00
                  0.0000E+00
                  0.0000E+00
                  0.0000E+00
                  0.0000E+00
                  0.0000E+00
                  0.0000E+00
                  0.0000E+00
                  0.0000E+00
                  0.0000E+00
                  0.0000E+00
                  0.0000E+00
                  0.0000E+00
                  0.0000E+00
                  0.0000E+00
                  0.0000E+00
                  0.0000E+00
                  0.0000E+00
                  0.0000E+00
                  0.0000E+00
                  0.0000E+00
                  0.0000E+00
                  0.0000E+00
                  0.0000E+00
                  0.0000E+00
                  0.0000E+00
                  0.0000E+00
                  0.0000E+00
                  0.0000E+00
                  0.0000E+00
                  0.0000E+00
                  0.0000E+00
                  0.0000E+00
                  0.0000E+00
                  0.0000E+00
                  0.0000E+00
                  0.0000E+00
                  0.0000E+00
                  0.0000E+00
                  0.0000E+00
                  0.0000E+00
                  0.0000E+00
                  0.0000E+00
                  0.0000E+00
                  0.0000E+00
                  0.0000E+00
                  0.0000E+00
                  0.0000E+00
                  0.0000E+00
                  0.0000E+00
                  0.0000E+00
                  0.0000E+00
                  0.0000E+00
                  0.0000E+00
                  0.0000E+00
                  0.0000E+00
                  0.0000E+00
                  0.0000E+00
                  0.0000E+00
                  0.0000E+00
                  0.0000E+00
                  0.0000E+00
                  0.0000E+00
                  0.0000E+00
                  0.0000E+00
                  0.0000E+00
                  0.0000E+00
                  0.0000E+00
                  0.0000E+00
                  0.0000E+00
                  0.0000E+00
                  0.0000E+00
                  0.0000E+00
                  0.0000E+00
                  0.0000E+00
                  0.0000E+00
                  0.0000E+00
                  0.0000E+00
                  0.0000E+00
                  0.0000E+00
                  0.0000E+00
                  0.0000E+00
                  0.0000E+00
                  0.0000E+00
                  0.0000E+00
                  0.0000E+00
                  0.0000E+00
                  0.0000E+00
                  0.0000E+00
                  0.0000E+00
                  0.0000E+00
                  0.0000E+00
                  0.0000E+00
                  0.0000E+00
                  0.0000E+00
                  0.0000E+00
                  0.0000E+00
                  0.0000E+00
                  0.0000E+00
                  0.0000E+00
                  0.0000E+00
                  0.0000E+00
                  0.0000E+00
                  0.0000E+00
                  0.0000E+00
                  0.0000E+00
                  0.0000E+00
                  0.0000E+00
                  0.0000E+00
                  0.0000E+00
                  0.0000E+00
                  0.0000E+00
                  0.0000E+00
                  0.0000E+00
                  0.0000E+00
                  0.0000E+00
                  0.0000E+00
                  0.0000E+00
                  0.0000E+00
                  0.0000E+00
                  0.0000E+00
                  0.0000E+00
                  0.0000E+00
                  0.0000E+00
                  0.0000E+00
                  0.0000E+00
                  0.0000E+00
                  0.0000E+00
                  0.0000E+00
                  0.0000E+00
                  0.0000E+00
                  0.0000E+00
                  0.0000E+00
                  0.0000E+00
                  0.0000E+00
                  0.0000E+00
                  0.0000E+00
                  0.0000E+00
                  0.0000E+00
                  0.0000E+00
                  0.0000E+00
                  0.0000E+00
                  0.0000E+00
                  0.0000E+00
                  0.0000E+00
                  0.0000E+00
                  0.0000E+00
                  0.0000E+00
                  0.0000E+00
                  0.0000E+00
                  0.0000E+00
                  0.0000E+00
                  0.0000E+00
                  0.0000E+00
                  0.0000E+00
                  0.0000E+00
                  0.0000E+00
                  0.0000E+00
                  0.0000E+00
                  0.0000E+00
                  0.0000E+00
                  0.0000E+00
                  0.0000E+00
                  0.0000E+00
                  0.0000E+00
                  0.0000E+00
                  0.0000E+00
                  0.0000E+00
                  0.0000E+00
                  0.0000E+00
                  0.0000E+00
                  0.0000E+00
                  0.0000E+00
                  0.0000E+00
                  0.0000E+00
                  0.0000E+00
                  0.0000E+00
                  0.0000E+00
                  0.0000E+00
                  0.0000E+00
                  0.0000E+00
                  0.0000E+00
                  0.0000E+00
                  0.0000E+00