<?xml version="1.0"?>
<VTKFile type="UnstructuredGrid" version="0.1" byte_order="BigEndian">
<UnstructuredGrid>
    <Piece NumberOfPoints="4000" NumberOfCells="4000">
        <Points>
             <DataArray type="Float32" NumberOfComponents="3" Format="ascii">
                  0.1636E-01    0.1250E-01    0.1250E-01
                  0.4909E-01    0.1250E-01    0.1250E-01
                  0.7545E-01    0.1250E-01    0.1250E-01
                  0.1000E+00    0.1250E-01    0.1250E-01
                  0.1276E+00    0.1250E-01    0.1250E-01
                  0.1553E+00    0.1250E-01    0.1250E-01
                  0.1859E+00    0.1250E-01    0.1250E-01
                  0.2178E+00    0.1250E-01    0.1250E-01
                  0.2489E+00    0.1250E-01    0.1250E-01
                  0.2758E+00    0.1250E-01    0.1250E-01
                  0.3000E+00    0.1250E-01    0.1250E-01
                  0.3290E+00    0.1250E-01    0.1250E-01
                  0.3554E+00    0.1250E-01    0.1250E-01
                  0.3838E+00    0.1250E-01    0.1250E-01
                  0.4115E+00    0.1250E-01    0.1250E-01
                  0.4430E+00    0.1250E-01    0.1250E-01
                  0.4714E+00    0.1250E-01    0.1250E-01
                  0.5000E+00    0.1250E-01    0.1250E-01
                  0.5268E+00    0.1250E-01    0.1250E-01
                  0.5529E+00    0.1250E-01    0.1250E-01
                  0.5809E+00    0.1250E-01    0.1250E-01
                  0.6088E+00    0.1250E-01    0.1250E-01
                  0.6354E+00    0.1250E-01    0.1250E-01
                  0.6634E+00    0.1250E-01    0.1250E-01
                  0.6925E+00    0.1250E-01    0.1250E-01
                  0.7219E+00    0.1250E-01    0.1250E-01
                  0.7500E+00    0.1250E-01    0.1250E-01
                  0.7774E+00    0.1250E-01    0.1250E-01
                  0.8028E+00    0.1250E-01    0.1250E-01
                  0.8324E+00    0.1250E-01    0.1250E-01
                  0.8605E+00    0.1250E-01    0.1250E-01
                  0.8892E+00    0.1250E-01    0.1250E-01
                  0.9178E+00    0.1250E-01    0.1250E-01
                  0.9499E+00    0.1250E-01    0.1250E-01
                  0.9753E+00    0.1250E-01    0.1250E-01
                  0.1000E+01    0.1250E-01    0.1250E-01
                  0.1030E+01    0.1250E-01    0.1250E-01
                  0.1059E+01    0.1250E-01    0.1250E-01
                  0.1087E+01    0.1250E-01    0.1250E-01
                  0.1114E+01    0.1250E-01    0.1250E-01
                  0.1141E+01    0.1250E-01    0.1250E-01
                  0.1169E+01    0.1250E-01    0.1250E-01
                  0.1199E+01    0.1250E-01    0.1250E-01
                  0.1225E+01    0.1250E-01    0.1250E-01
                  0.1250E+01    0.1250E-01    0.1250E-01
                  0.1282E+01    0.1250E-01    0.1250E-01
                  0.1311E+01    0.1250E-01    0.1250E-01
                  0.1341E+01    0.1250E-01    0.1250E-01
                  0.1368E+01    0.1250E-01    0.1250E-01
                  0.1397E+01    0.1250E-01    0.1250E-01
                  0.1422E+01    0.1250E-01    0.1250E-01
                  0.1450E+01    0.1250E-01    0.1250E-01
                  0.1478E+01    0.1250E-01    0.1250E-01
                  0.1506E+01    0.1250E-01    0.1250E-01
                  0.1539E+01    0.1250E-01    0.1250E-01
                  0.1569E+01    0.1250E-01    0.1250E-01
                  0.1597E+01    0.1250E-01    0.1250E-01
                  0.1624E+01    0.1250E-01    0.1250E-01
                  0.1650E+01    0.1250E-01    0.1250E-01
                  0.1674E+01    0.1250E-01    0.1250E-01
                  0.1700E+01    0.1250E-01    0.1250E-01
                  0.1734E+01    0.1250E-01    0.1250E-01
                  0.1763E+01    0.1250E-01    0.1250E-01
                  0.1795E+01    0.1250E-01    0.1250E-01
                  0.1823E+01    0.1250E-01    0.1250E-01
                  0.1850E+01    0.1250E-01    0.1250E-01
                  0.1875E+01    0.1250E-01    0.1250E-01
                  0.1900E+01    0.1250E-01    0.1250E-01
                  0.1926E+01    0.1250E-01    0.1250E-01
                  0.1955E+01    0.1250E-01    0.1250E-01
                  0.1986E+01    0.1250E-01    0.1250E-01
                  0.2017E+01    0.1250E-01    0.1250E-01
                  0.2049E+01    0.1250E-01    0.1250E-01
                  0.2076E+01    0.1250E-01    0.1250E-01
                  0.2100E+01    0.1250E-01    0.1250E-01
                  0.2126E+01    0.1250E-01    0.1250E-01
                  0.2150E+01    0.1250E-01    0.1250E-01
                  0.2182E+01    0.1250E-01    0.1250E-01
                  0.2216E+01    0.1250E-01    0.1250E-01
                  0.2249E+01    0.1250E-01    0.1250E-01
                  0.2274E+01    0.1250E-01    0.1250E-01
                  0.2300E+01    0.1250E-01    0.1250E-01
                  0.2326E+01    0.1250E-01    0.1250E-01
                  0.2351E+01    0.1250E-01    0.1250E-01
                  0.2380E+01    0.1250E-01    0.1250E-01
                  0.2408E+01    0.1250E-01    0.1250E-01
                  0.2439E+01    0.1250E-01    0.1250E-01
                  0.2471E+01    0.1250E-01    0.1250E-01
                  0.2500E+01    0.1250E-01    0.1250E-01
                  0.2526E+01    0.1250E-01    0.1250E-01
                  0.2550E+01    0.1250E-01    0.1250E-01
                  0.2579E+01    0.1250E-01    0.1250E-01
                  0.2605E+01    0.1250E-01    0.1250E-01
                  0.2632E+01    0.1250E-01    0.1250E-01
                  0.2659E+01    0.1250E-01    0.1250E-01
                  0.2692E+01    0.1250E-01    0.1250E-01
                  0.2720E+01    0.1250E-01    0.1250E-01
                  0.2747E+01    0.1250E-01    0.1250E-01
                  0.2774E+01    0.1250E-01    0.1250E-01
                  0.2800E+01    0.1250E-01    0.1250E-01
                  0.2829E+01    0.1250E-01    0.1250E-01
                  0.2859E+01    0.1250E-01    0.1250E-01
                  0.2884E+01    0.1250E-01    0.1250E-01
                  0.2909E+01    0.1250E-01    0.1250E-01
                  0.2943E+01    0.1250E-01    0.1250E-01
                  0.2972E+01    0.1250E-01    0.1250E-01
                  0.2996E+01    0.1250E-01    0.1250E-01
                  0.3023E+01    0.1250E-01    0.1250E-01
                  0.3050E+01    0.1250E-01    0.1250E-01
                  0.3077E+01    0.1250E-01    0.1250E-01
                  0.3104E+01    0.1250E-01    0.1250E-01
                  0.3130E+01    0.1250E-01    0.1250E-01
                  0.3155E+01    0.1250E-01    0.1250E-01
                  0.3191E+01    0.1250E-01    0.1250E-01
                  0.3221E+01    0.1250E-01    0.1250E-01
                  0.3249E+01    0.1250E-01    0.1250E-01
                  0.3276E+01    0.1250E-01    0.1250E-01
                  0.3300E+01    0.1250E-01    0.1250E-01
                  0.3324E+01    0.1250E-01    0.1250E-01
                  0.3350E+01    0.1250E-01    0.1250E-01
                  0.3377E+01    0.1250E-01    0.1250E-01
                  0.3404E+01    0.1250E-01    0.1250E-01
                  0.3433E+01    0.1250E-01    0.1250E-01
                  0.3461E+01    0.1250E-01    0.1250E-01
                  0.3487E+01    0.1250E-01    0.1250E-01
                  0.3518E+01    0.1250E-01    0.1250E-01
                  0.3549E+01    0.1250E-01    0.1250E-01
                  0.3574E+01    0.1250E-01    0.1250E-01
                  0.3600E+01    0.1250E-01    0.1250E-01
                  0.3627E+01    0.1250E-01    0.1250E-01
                  0.3653E+01    0.1250E-01    0.1250E-01
                  0.3685E+01    0.1250E-01    0.1250E-01
                  0.3711E+01    0.1250E-01    0.1250E-01
                  0.3742E+01    0.1250E-01    0.1250E-01
                  0.3771E+01    0.1250E-01    0.1250E-01
                  0.3801E+01    0.1250E-01    0.1250E-01
                  0.3827E+01    0.1250E-01    0.1250E-01
                  0.3851E+01    0.1250E-01    0.1250E-01
                  0.3881E+01    0.1250E-01    0.1250E-01
                  0.3908E+01    0.1250E-01    0.1250E-01
                  0.3932E+01    0.1250E-01    0.1250E-01
                  0.3958E+01    0.1250E-01    0.1250E-01
                  0.3994E+01    0.1250E-01    0.1250E-01
                  0.4024E+01    0.1250E-01    0.1250E-01
                  0.4050E+01    0.1250E-01    0.1250E-01
                  0.4080E+01    0.1250E-01    0.1250E-01
                  0.4104E+01    0.1250E-01    0.1250E-01
                  0.4129E+01    0.1250E-01    0.1250E-01
                  0.4153E+01    0.1250E-01    0.1250E-01
                  0.4183E+01    0.1250E-01    0.1250E-01
                  0.4214E+01    0.1250E-01    0.1250E-01
                  0.4246E+01    0.1250E-01    0.1250E-01
                  0.4271E+01    0.1250E-01    0.1250E-01
                  0.4299E+01    0.1250E-01    0.1250E-01
                  0.4327E+01    0.1250E-01    0.1250E-01
                  0.4352E+01    0.1250E-01    0.1250E-01
                  0.4378E+01    0.1250E-01    0.1250E-01
                  0.4404E+01    0.1250E-01    0.1250E-01
                  0.4432E+01    0.1250E-01    0.1250E-01
                  0.4460E+01    0.1250E-01    0.1250E-01
                  0.4491E+01    0.1250E-01    0.1250E-01
                  0.4521E+01    0.1250E-01    0.1250E-01
                  0.4547E+01    0.1250E-01    0.1250E-01
                  0.4577E+01    0.1250E-01    0.1250E-01
                  0.4600E+01    0.1250E-01    0.1250E-01
                  0.4625E+01    0.1250E-01    0.1250E-01
                  0.4651E+01    0.1250E-01    0.1250E-01
                  0.4680E+01    0.1250E-01    0.1250E-01
                  0.4710E+01    0.1250E-01    0.1250E-01
                  0.4740E+01    0.1250E-01    0.1250E-01
[...]
        <PointData Scalars="scalars">
            <DataArray type="Float32" Name="seqv" Format="ascii">
                  0.0000E+00
                  0.0000E+00
                  0.0000E+00
                  0.0000E+00
                  0.0000E+00
                  0.0000E+00
                  0.0000E+00
                  0.0000E+00
                  0.0000E+00
                  0.0000E+00
                  0.0000E+00
                  0.0000E+00
                  0.0000E+00
                  0.0000E+00
                  0.0000E+00
                  0.0000E+00
                  0.0000E+00
                  0.0000E+00
                  0.0000E+00
                  0.0000E+00
                  0.0000E+00
                  0.0000E+00
                  0.0000E+00
                  0.0000E+00
                  0.0000E+00
                  0.0000E+00
                  0.0000E+00
                  0.0000E+00
                  0.0000E+00
                  0.0000E+00
                  0.0000E+00
                  0.0000E+00
                  0.0000E+00
                  0.0000E+00
                  0.0000E+00
                  0.0000E+00
                  0.0000E+00
                  0.0000E+00
                  0.0000E+00
                  0.0000E+00
                  0.0000E+00
                  0.0000E+00
                  0.0000E+00
                  0.0000E+00
                  0.0000E+00
                  0.0000E+00
                  0.0000E+00
                  0.0000E+00
                  0.0000E+00
                  0.0000E+00
                  0.0000E+00
                  0.0000E+00
                  0.0000E+00
                  0.0000E+00
                  0.0000E+00
                  0.0000E+00
                  0.0000E+00
                  0.0000E+00
                  0.0000E+00
                  0.0000E+00
                  0.0000E+00
                  0.0000E+00
                  0.0000E+00
                  0.0000E+00
                  0.0000E+00
                  0.0000E+00
                  0.0000E+00
                  0.0000E+00
                  0.0000E+00
                  0.0000E+00
                  0.0000E+00
                  0.0000E+00
                  0.0000E+00
                  0.0000E+00
                  0.0000E+00
                  0.0000E+00
                  0.0000E+00
                  0.0000E+00
                  0.0000E+00
                  0.0000E+00
                  0.0000E+00
                  0.0000E+00
                  0.0000E+00
                  0.0000E+00
                  0.0000E+00
                  0.0000E+00
                  0.0000E+00
                  0.0000E+00
                  0.0000E+00
                  0.0000E+00
                  0.0000E+00
                  0.0000E+00
                  0.0000E+00
                  0.0000E+00
                  0.0000E+00
                  0.0000E+00
                  0.0000E+00
                  0.0000E+00
                  0.0000E+00
                  0.0000E+00
                  0.0000E+00
                  0.0000E+00
                  0.0000E+00
                  0.0000E+00
                  0.0000E+00
                  0.0000E+00
                  0.0000E+00
                  0.0000E+00
                  0.0000E+00
                  0.0000E+00
                  0.0000E+00
                  0.0000E+00
                  0.0000E+00
                  0.0000E+00
                  0.0000E+00
                  0.0000E+00
                  0.0000E+00
                  0.0000E+00
                  0.0000E+00
                  0.0000E+00
                  0.0000E+00
                  0.0000E+00
                  0.0000E+00
                  0.0000E+00
                  0.0000E+00
                  0.0000E+00
                  0.0000E+00
                  0.0000E+00
                  0.0000E+00
                  0.0000E+00
                  0.0000E+00
                  0.0000E+00
                  0.0000E+00
                  0.0000E+00
                  0.0000E+00
                  0.0000E+00
                  0.0000E+00
                  0.0000E+00
                  0.0000E+00
                  0.0000E+00
                  0.0000E+00
                  0.0000E+00
                  0.0000E+00
                  0.0000E+00
                  0.0000E+00
                  0.0000E+00
                  0.0000E+00
                  0.0000E+00
                  0.0000E+00
                  0.0000E+00
                  0.0000E+00
                  0.0000E+00
                  0.0000E+00
                  0.0000E+00
                  0.0000E+00
                  0.0000E+00
                  0.0000E+00
                  0.0000E+00
                  0.0000E+00
                  0.0000E+00
                  0.0000E+00
                  0.0000E+00
                  0.0000E+00
                  0.0000E+00
                  0.0000E+00
                  0.0000E+00
                  0.0000E+00
                  0.0000E+00
                  0.0000E+00
                  0.0000E+00
                  0.0000E+00
                  0.0000E+00
                  0.0000E+00
                  0.0000E+00
                  0.0000E+00
                  0.0000E+00
                  0.0000E+00
                  0.0000E+00
                  0.0000E+00
                  0.0000E+00
                  0.0000E+00
                  0.0000E+00
                  0.0000E+00
                  0.0000E+00
                  0.0000E+00
                  0.0000E+00
                  0.0000E+00
                  0.0000E+00
                  0.0000E+00
                  0.0000E+00
                  0.0000E+00
                  0.0000E+00
                  0.0000E+00
                  0.0000E+00
                  0.0000E+00
                  0.0000E+00
                  0.0000E+00
                  0.0000E+00
                  0.0000E+00
                  0.0000E+00
                  0.0000E+00
                  0.0000E+00
                  0.0000E+00
                  0.0000E+00
                  0.0000E+00
                  0.0000E+00
                  0.0000E+00
                  0.0000E+00
                  0.0000E+00
                  0.0000E+00
                  0.0000E+00
                  0.0000E+00
                  0.0000E+00
                  0.0000E+00
                  0.0000E+00
                  0.0000E+00
                  0.0000E+00
                  0.0000E+00
                  0.0000E+00
                  0.0000E+00
                  0.0000E+00
                  0.0000E+00
                  0.0000E+00
                  0.0000E+00
                  0.0000E+00
                  0.0000E+00
                  0.0000E+00
                  0.0000E+00
                  0.0000E+00
                  0.0000E+00
                  0.0000E+00
                  0.0000E+00
                  0.0000E+00
                  0.0000E+00
                  0.0000E+00
                  0.0000E+00
                  0.0000E+00
                  0.0000E+00
                  0.0000E+00
                  0.0000E+00
                  0.0000E+00
                  0.0000E+00
                  0.0000E+00
                  0.0000E+00
                  0.0000E+00
                  0.0000E+00
                  0.0000E+00
                  0.0000E+00
                  0.0000E+00
                  0.0000E+00
                  0.0000E+00
                  0.0000E+00
                  0.0000E+00
                  0.0000E+00
                  0.0000E+00
                  0.0000E+00
                  0.0000E+00
                  0.0000E+00
                  0.0000E+00
                  0.0000E+00
                  0.0000E+00
                  0.0000E+00
                  0.0000E+00
                  0.0000E+00
                  0.0000E+00
                  0.0000E+00
                  0.0000E+00
                  0.0000E+00
                  0.0000E+00
                  0.0000E+00
                  0.0000E+00
                  0.0000E+00
                  0.0000E+00
                  0.0000E+00
                  0.0000E+00
                  0.0000E+00
                  0.0000E+00
                  0.0000E+00
                  0.0000E+00
                  0.0000E+00
                  0.0000E+00
                  0.0000E+00
                  0.0000E+00
                  0.0000E+00
                  0.0000E+00
                  0.0000E+00
                  0.0000E+00
                  0.0000E+00
                  0.0000E+00
                  0.0000E+00
                  0.0000E+00
                  0.0000E+00
                  0.0000E+00
                  0.0000E+00
                  0.0000E+00
                  0.0000E+00
                  0.0000E+00
                  0.0000E+00
                  0.0000E+00
                  0.0000E+00
                  0.0000E+00
                  0.0000E+00
                  0.0000E+00
                  0.0000E+00
                  0.0000E+00
                  0.0000E+00
                  0.0000E+00
                  0.0000E+00
                  0.0000E+00
                  0.0000E+00
                  0.0000E+00
                  0.0000E+00
                  0.0000E+00
                  0.0000E+00
                  0.0000E+00
                  0.0000E+00
                  0.0000E+00
                  0.0000E+00
                  0.0000E+00
                  0.0000E+00
                  0.0000E+00
                  0.0000E+00
                  0.0000E+00
                  0.0000E+00
                  0.0000E+00
                  0.0000E+00
                  0.0000E+00
                  0.0000E+00
                  0.0000E+00
                  0.0000E+00
                  0.0000E+00
                  0.0000E+00
                  0.0000E+00
                  0.0000E+00
                  0.0000E+00
                  0.0000E+00
                  0.0000E+00
                  0.0000E+00
                  0.0000E+00
                  0.0000E+00
                  0.0000E+00
                  0.0000E+00
                  0.0000E+00
                  0.0000E+00
                  0.0000E+00
                  0.0000E+00
                  0.0000E+00
                  0.0000E+00
                  0.0000E+00
                  0.0000E+00
                  0.0000E+00
                  0.0000E+00
                  0.0000E+00
                  0.0000E+00
                  0.0000E+00
                  0.0000E+00
                  0.0000E+00
                  0.0000E+00
                  0.0000E+00
                  0.0000E+00
                  0.0000E+00
                  0.0000E+00
                  0.0000E+00
                  0.0000E+00
                  0.0000E+00
                  0.0000E+00
                  0.0000E+00
                  0.0000E+00
                  0.0000E+00
                  0.0000E+00
                  0.0000E+00
                  0.0000E+00
                  0.0000E+00
                  0.0000E+00
                  0.0000E+00
                  0.0000E+00
                  0.0000E+00
                  0.0000E+00
                  0.0000E+00
                  0.0000E+00
                  0.0000E+00
                  0.0000E+00
                  0.0000E+00
                  0.0000E+00
                  0.0000E+00
                  0.0000E+00
                  0.0000E+00
                  0.0000E+00
                  0.0000E+00
                  0.0000E+00
                  0.0000E+00
                  0.0000E+00
                  0.0000E+00
                  0.0000E+00
                  0.0000E+00
                  0.0000E+00
                  0.0000E+00
                  0.0000E+00
                  0.0000E+00
                  0.0000E+00
                  0.0000E+00
                  0.0000E+00
                  0.0000E+00
                  0.0000E+00
                  0.0000E+00
                  0.0000E+00
                  0.0000E+00
                  0.0000E+00
                  0.0000E+00
                  0.0000E+00
                  0.0000E+00
                  0.0000E+00
                  0.0000E+00
                  0.0000E+00
                  0.0000E+00
                  0.0000E+00
                  0.0000E+00
                  0.0000E+00
                  0.0000E+00
                  0.0000E+00
                  0.0000E+00
                  0.0000E+00
                  0.0000E+00
                  0.0000E+00
                  0.0000E+00
                  0.0000E+00
                  0.0000E+00
                  0.0000E+00
                  0.0000E+00
                  0.0000E+00
                  0.0000E+00
                  0.0000E+00
                  0.0000E+00
                  0.0000E+00
                  0.0000E+00
                  0.0000E+00
                  0.0000E+00
                  0.0000E+00
                  0.0000E+00
                  0.0000E+00
                  0.0000E+00
                  0.0000E+00
                  0.0000E+00
                  0.0000E+00
                  0.0000E+00
                  0.0000E+00
                  0.0000E+00
                  0.0000E+00
                  0.0000E+00
                  0.0000E+00
                  0.0000E+00
                  0.0000E+00
                  0.0000E+00
                  0.0000E+00
                  0.0000E+00
                  0.0000E+00
                  0.0000E+00
                  0.0000E+00
                  0.0000E+00
                  0.0000E+00
                  0.0000E+00
                  0.0000E+00
                  0.0000E+00
                  0.0000E+00
                  0.0000E+00
                  0.0000E+00
                  0.0000E+00
                  0.0000E+00
                  0.0000E+00
                  0.0000E+00
                  0.0000E+00
                  0.0000E+00
                  0.0000E+00
                  0.0000E+00
                  0.0000E+00
                  0.0000E+00
                  0.0000E+00
                  0.0000E+00
                  0.0000E+00
                  0.0000E+00
                  0.0000E+00
                  0.0000E+00
                  0.0000E+00
                  0.0000E+00
                  0.0000E+00
                  0.0000E+00
                  0.0000E+00
                  0.0000E+00
                  0.0000E+00
                  0.0000E+00
                  0.0000E+00
                  0.0000E+00
                  0.0000E+00
                  0.0000E+00
                  0.0000E+00
                  0.0000E+00
                  0.0000E+00
                  0.0000E+00
                  0.0000E+00
                  0.0000E+00
                  0.0000E+00
                  0.0000E+00
                  0.0000E+00
                  0.0000E+00
                  0.0000E+00
                  0.0000E+00
                  0.0000E+00
                  0.0000E+00
                  0.0000E+00
                  0.0000E+00
                  0.0000E+00
                  0.0000E+00
                  0.0000E+00
                  0.0000E+00
                  0.0000E+00
                  0.0000E+00
                  0.0000E+00
                  0.0000E+00
                  0.0000E+00
                  0.0000E+00
                  0.0000E+00
                  0.0000E+00
                  0.0000E+00
                  0.0000E+00
                  0.0000E+00
                  0.0000E+00
                  0.0000E+00
                  0.0000E+00
                  0.0000E+00
                  0.0000E+00
                  0.0000E+00
                  0.0000E+00
                  0.0000E+00
                  0.0000E+00
                  0.0000E+00
                  0.0000E+00
                  0.0000E+00
                  0.0000E+00
                  0.0000E+00
                  0.0000E+00
                  0.0000E+00
                  0.0000E+00
                  0.0000E+00
                  0.0000E+00
                  0.0000E+00
                  0.0000E+00
                  0.0000E+00
                  0.0000E+00
                  0.0000E+00
                  0.0000E+00
                  0.0000E+00
                  0.0000E+00
                  0.0000E+00
                  0.0000E+00
                  0.0000E+00
                  0.0000E+00
                  0.0000E+00
                  0.0000E+00
                  0.0000E+00
                  0.0000E+00
                  0.0000E+00
                  0.0000E+00
                  0.0000E+00
                  0.0000E+00
                  0.0000E+00
                  0.0000E+00
                  0.0000E+00
                  0.0000E+00
                  0.0000E+00
                  0.0000E+00
                  0.0000E+00
                  0.0000E+00
                  0.0000E+00
                  0.0000E+00
                  0.0000E+00
                  0.0000E+00
                  0.0000E+00
                  0.0000E+00
                  0.0000E+00
                  0.0000E+00
                  0.0000E+00
                  0.0000E+00
                  0.0000E+00
                  0.0000E+00
                  0.0000E+00
                  0.0000E+00
                  0.0000E+00
                  0.0000E+00
                  0.0000E+00
                  0.0000E+00
                  0.0000E+00
                  0.0000E+00
                  0.0000E+00
                  0.0000E+00
                  0.0000E+00
                  0.0000E+00
                  0.0000E+00
                  0.0000E+00
                  0.0000E+00
                  0.0000E+00
                  0.0000E+00
                  0.0000E+00
                  0.0000E+00
                  0.0000E+00
                  0.0000E+00
                  0.0000E+00
                  0.0000E+00
                  0.0000E+00
                  0.0000E+00
                  0.0000E+00
                  0.0000E+00
                  0.0000E+00
                  0.0000E+00
                  0.0000E+00
                  0.0000E+00
                  0.0000E+00
                  0.0000E+00
                  0.0000E+00
                  0.0000E+00
                  0.0000E+00
                  0.0000E+00
                  0.0000E+00
                  0.0000E+00
                  0.0000E+00
                  0.0000E+00
                  0.0000E+00
                  0.0000E+00
                  0.0000E+00
                  0.0000E+00
                  0.0000E+00
                  0.0000E+00
                  0.0000E+00
                  0.0000E+00
                  0.0000E+00
                  0.0000E+00
                  0.0000E+00
                  0.0000E+00
                  0.0000E+00
                  0.0000E+00
                  0.0000E+00
                  0.0000E+00
                  0.0000E+00
                  0.0000E+00
                  0.0000E+00
                  0.0000E+00
                  0.0000E+00
                  0.0000E+00
                  0.0000E+00
                  0.0000E+00
                  0.0000E+00
                  0.0000E+00
                  0.0000E+00
                  0.0000E+00
                  0.0000E+00
                  0.0000E+00
                  0.0000E+00
                  0.0000E+00
                  0.0000E+00
                  0.0000E+00
                  0.0000E+00
                  0.0000E+00
                  0.0000E+00
                  0.0000E+00
                  0.0000E+00
                  0.0000E+00
                  0.0000E+00
                  0.0000E+00
                  0.0000E+00
                  0.0000E+00
                  0.0000E+00
                  0.0000E+00
                  0.0000E+00
                  0.0000E+00
                  0.0000E+00
                  0.0000E+00
                  0.0000E+00
                  0.0000E+00
                  0.0000E+00
                  0.0000E+00
                  0.0000E+00
                  0.0000E+00
                  0.0000E+00
                  0.0000E+00
                  0.0000E+00
                  0.0000E+00
                  0.0000E+00