<?xml version="1.0"?>
<VTKFile type="UnstructuredGrid" version="0.1" byte_order="BigEndian">
<UnstructuredGrid>
    <Piece NumberOfPoints="4000" NumberOfCells="4000">
        <Points>
             <DataArray type="Float32" NumberOfComponents="3" Format="ascii">
                  0.1535E-01    0.1250E-01    0.1250E-01
                  0.4605E-01    0.1250E-01    0.1250E-01
                  0.7308E-01    0.1250E-01    0.1250E-01
                  0.1019E+00    0.1250E-01    0.1250E-01
                  0.1287E+00    0.1250E-01    0.1250E-01
                  0.1570E+00    0.1250E-01    0.1250E-01
                  0.1895E+00    0.1250E-01    0.1250E-01
                  0.2198E+00    0.1250E-01    0.1250E-01
                  0.2504E+00    0.1250E-01    0.1250E-01
                  0.2760E+00    0.1250E-01    0.1250E-01
                  0.3001E+00    0.1250E-01    0.1250E-01
                  0.3262E+00    0.1250E-01    0.1250E-01
                  0.3506E+00    0.1250E-01    0.1250E-01
                  0.3778E+00    0.1250E-01    0.1250E-01
                  0.4062E+00    0.1250E-01    0.1250E-01
                  0.4407E+00    0.1250E-01    0.1250E-01
                  0.4714E+00    0.1250E-01    0.1250E-01
                  0.4998E+00    0.1250E-01    0.1250E-01
                  0.5263E+00    0.1250E-01    0.1250E-01
                  0.5525E+00    0.1250E-01    0.1250E-01
                  0.5792E+00    0.1250E-01    0.1250E-01
                  0.6081E+00    0.1250E-01    0.1250E-01
                  0.6369E+00    0.1250E-01    0.1250E-01
                  0.6672E+00    0.1250E-01    0.1250E-01
                  0.6983E+00    0.1250E-01    0.1250E-01
                  0.7254E+00    0.1250E-01    0.1250E-01
                  0.7500E+00    0.1250E-01    0.1250E-01
                  0.7789E+00    0.1250E-01    0.1250E-01
                  0.8063E+00    0.1250E-01    0.1250E-01
                  0.8342E+00    0.1250E-01    0.1250E-01
                  0.8618E+00    0.1250E-01    0.1250E-01
                  0.8904E+00    0.1250E-01    0.1250E-01
                  0.9182E+00    0.1250E-01    0.1250E-01
                  0.9495E+00    0.1250E-01    0.1250E-01
                  0.9749E+00    0.1250E-01    0.1250E-01
                  0.1000E+01    0.1250E-01    0.1250E-01
                  0.1033E+01    0.1250E-01    0.1250E-01
                  0.1063E+01    0.1250E-01    0.1250E-01
                  0.1090E+01    0.1250E-01    0.1250E-01
                  0.1120E+01    0.1250E-01    0.1250E-01
                  0.1149E+01    0.1250E-01    0.1250E-01
                  0.1174E+01    0.1250E-01    0.1250E-01
                  0.1200E+01    0.1250E-01    0.1250E-01
                  0.1231E+01    0.1250E-01    0.1250E-01
                  0.1259E+01    0.1250E-01    0.1250E-01
                  0.1292E+01    0.1250E-01    0.1250E-01
                  0.1321E+01    0.1250E-01    0.1250E-01
                  0.1350E+01    0.1250E-01    0.1250E-01
                  0.1375E+01    0.1250E-01    0.1250E-01
                  0.1400E+01    0.1250E-01    0.1250E-01
                  0.1428E+01    0.1250E-01    0.1250E-01
                  0.1457E+01    0.1250E-01    0.1250E-01
                  0.1488E+01    0.1250E-01    0.1250E-01
                  0.1518E+01    0.1250E-01    0.1250E-01
                  0.1550E+01    0.1250E-01    0.1250E-01
                  0.1576E+01    0.1250E-01    0.1250E-01
                  0.1600E+01    0.1250E-01    0.1250E-01
                  0.1626E+01    0.1250E-01    0.1250E-01
                  0.1650E+01    0.1250E-01    0.1250E-01
                  0.1682E+01    0.1250E-01    0.1250E-01
                  0.1714E+01    0.1250E-01    0.1250E-01
                  0.1748E+01    0.1250E-01    0.1250E-01
                  0.1773E+01    0.1250E-01    0.1250E-01
                  0.1800E+01    0.1250E-01    0.1250E-01
                  0.1826E+01    0.1250E-01    0.1250E-01
                  0.1850E+01    0.1250E-01    0.1250E-01
                  0.1880E+01    0.1250E-01    0.1250E-01
                  0.1911E+01    0.1250E-01    0.1250E-01
                  0.1944E+01    0.1250E-01    0.1250E-01
                  0.1973E+01    0.1250E-01    0.1250E-01
                  0.2000E+01    0.1250E-01    0.1250E-01
                  0.2030E+01    0.1250E-01    0.1250E-01
                  0.2060E+01    0.1250E-01    0.1250E-01
                  0.2090E+01    0.1250E-01    0.1250E-01
                  0.2118E+01    0.1250E-01    0.1250E-01
                  0.2148E+01    0.1250E-01    0.1250E-01
                  0.2170E+01    0.1250E-01    0.1250E-01
                  0.2200E+01    0.1250E-01    0.1250E-01
                  0.2231E+01    0.1250E-01    0.1250E-01
                  0.2258E+01    0.1250E-01    0.1250E-01
                  0.2288E+01    0.1250E-01    0.1250E-01
                  0.2319E+01    0.1250E-01    0.1250E-01
                  0.2347E+01    0.1250E-01    0.1250E-01
                  0.2373E+01    0.1250E-01    0.1250E-01
                  0.2400E+01    0.1250E-01    0.1250E-01
                  0.2425E+01    0.1250E-01    0.1250E-01
                  0.2453E+01    0.1250E-01    0.1250E-01
                  0.2484E+01    0.1250E-01    0.1250E-01
                  0.2512E+01    0.1250E-01    0.1250E-01
                  0.2543E+01    0.1250E-01    0.1250E-01
                  0.2570E+01    0.1250E-01    0.1250E-01
                  0.2599E+01    0.1250E-01    0.1250E-01
                  0.2623E+01    0.1250E-01    0.1250E-01
                  0.2650E+01    0.1250E-01    0.1250E-01
                  0.2674E+01    0.1250E-01    0.1250E-01
                  0.2701E+01    0.1250E-01    0.1250E-01
                  0.2730E+01    0.1250E-01    0.1250E-01
                  0.2757E+01    0.1250E-01    0.1250E-01
                  0.2787E+01    0.1250E-01    0.1250E-01
                  0.2817E+01    0.1250E-01    0.1250E-01
                  0.2846E+01    0.1250E-01    0.1250E-01
                  0.2875E+01    0.1250E-01    0.1250E-01
                  0.2900E+01    0.1250E-01    0.1250E-01
                  0.2924E+01    0.1250E-01    0.1250E-01
                  0.2952E+01    0.1250E-01    0.1250E-01
                  0.2984E+01    0.1250E-01    0.1250E-01
                  0.3011E+01    0.1250E-01    0.1250E-01
                  0.3041E+01    0.1250E-01    0.1250E-01
                  0.3068E+01    0.1250E-01    0.1250E-01
                  0.3097E+01    0.1250E-01    0.1250E-01
                  0.3124E+01    0.1250E-01    0.1250E-01
                  0.3151E+01    0.1250E-01    0.1250E-01
                  0.3176E+01    0.1250E-01    0.1250E-01
                  0.3207E+01    0.1250E-01    0.1250E-01
                  0.3236E+01    0.1250E-01    0.1250E-01
                  0.3264E+01    0.1250E-01    0.1250E-01
                  0.3297E+01    0.1250E-01    0.1250E-01
                  0.3322E+01    0.1250E-01    0.1250E-01
                  0.3349E+01    0.1250E-01    0.1250E-01
                  0.3378E+01    0.1250E-01    0.1250E-01
                  0.3403E+01    0.1250E-01    0.1250E-01
                  0.3433E+01    0.1250E-01    0.1250E-01
                  0.3463E+01    0.1250E-01    0.1250E-01
                  0.3493E+01    0.1250E-01    0.1250E-01
                  0.3522E+01    0.1250E-01    0.1250E-01
                  0.3550E+01    0.1250E-01    0.1250E-01
                  0.3574E+01    0.1250E-01    0.1250E-01
                  0.3602E+01    0.1250E-01    0.1250E-01
                  0.3634E+01    0.1250E-01    0.1250E-01
                  0.3665E+01    0.1250E-01    0.1250E-01
                  0.3698E+01    0.1250E-01    0.1250E-01
                  0.3724E+01    0.1250E-01    0.1250E-01
                  0.3746E+01    0.1250E-01    0.1250E-01
                  0.3775E+01    0.1250E-01    0.1250E-01
                  0.3798E+01    0.1250E-01    0.1250E-01
                  0.3825E+01    0.1250E-01    0.1250E-01
                  0.3855E+01    0.1250E-01    0.1250E-01
                  0.3886E+01    0.1250E-01    0.1250E-01
                  0.3915E+01    0.1250E-01    0.1250E-01
                  0.3942E+01    0.1250E-01    0.1250E-01
                  0.3971E+01    0.1250E-01    0.1250E-01
                  0.3997E+01    0.1250E-01    0.1250E-01
                  0.4024E+01    0.1250E-01    0.1250E-01
                  0.4050E+01    0.1250E-01    0.1250E-01
                  0.4080E+01    0.1250E-01    0.1250E-01
                  0.4110E+01    0.1250E-01    0.1250E-01
                  0.4136E+01    0.1250E-01    0.1250E-01
                  0.4167E+01    0.1250E-01    0.1250E-01
                  0.4196E+01    0.1250E-01    0.1250E-01
                  0.4223E+01    0.1250E-01    0.1250E-01
                  0.4250E+01    0.1250E-01    0.1250E-01
                  0.4276E+01    0.1250E-01    0.1250E-01
                  0.4300E+01    0.1250E-01    0.1250E-01
                  0.4330E+01    0.1250E-01    0.1250E-01
                  0.4357E+01    0.1250E-01    0.1250E-01
                  0.4389E+01    0.1250E-01    0.1250E-01
                  0.4419E+01    0.1250E-01    0.1250E-01
                  0.4446E+01    0.1250E-01    0.1250E-01
                  0.4474E+01    0.1250E-01    0.1250E-01
                  0.4501E+01    0.1250E-01    0.1250E-01
                  0.4524E+01    0.1250E-01    0.1250E-01
                  0.4550E+01    0.1250E-01    0.1250E-01
                  0.4580E+01    0.1250E-01    0.1250E-01
                  0.4613E+01    0.1250E-01    0.1250E-01
                  0.4641E+01    0.1250E-01    0.1250E-01
                  0.4670E+01    0.1250E-01    0.1250E-01
                  0.4699E+01    0.1250E-01    0.1250E-01
                  0.4723E+01    0.1250E-01    0.1250E-01
                  0.4750E+01    0.1250E-01    0.1250E-01
                  0.4779E+01    0.1250E-01    0.1250E-01
[...]
        <PointData Scalars="scalars">
            <DataArray type="Float32" Name="seqv" Format="ascii">
                  0.0000E+00
                  0.0000E+00
                  0.0000E+00
                  0.0000E+00
                  0.0000E+00
                  0.0000E+00
                  0.0000E+00
                  0.0000E+00
                  0.0000E+00
                  0.0000E+00
                  0.0000E+00
                  0.0000E+00
                  0.0000E+00
                  0.0000E+00
                  0.0000E+00
                  0.0000E+00
                  0.0000E+00
                  0.0000E+00
                  0.0000E+00
                  0.0000E+00
                  0.0000E+00
                  0.0000E+00
                  0.0000E+00
                  0.0000E+00
                  0.0000E+00
                  0.0000E+00
                  0.0000E+00
                  0.0000E+00
                  0.0000E+00
                  0.0000E+00
                  0.0000E+00
                  0.0000E+00
                  0.0000E+00
                  0.0000E+00
                  0.0000E+00
                  0.0000E+00
                  0.0000E+00
                  0.0000E+00
                  0.0000E+00
                  0.0000E+00
                  0.0000E+00
                  0.0000E+00
                  0.0000E+00
                  0.0000E+00
                  0.0000E+00
                  0.0000E+00
                  0.0000E+00
                  0.0000E+00
                  0.0000E+00
                  0.0000E+00
                  0.0000E+00
                  0.0000E+00
                  0.0000E+00
                  0.0000E+00
                  0.0000E+00
                  0.0000E+00
                  0.0000E+00
                  0.0000E+00
                  0.0000E+00
                  0.0000E+00
                  0.0000E+00
                  0.0000E+00
                  0.0000E+00
                  0.0000E+00
                  0.0000E+00
                  0.0000E+00
                  0.0000E+00
                  0.0000E+00
                  0.0000E+00
                  0.0000E+00
                  0.0000E+00
                  0.0000E+00
                  0.0000E+00
                  0.0000E+00
                  0.0000E+00
                  0.0000E+00
                  0.0000E+00
                  0.0000E+00
                  0.0000E+00
                  0.0000E+00
                  0.0000E+00
                  0.0000E+00
                  0.0000E+00
                  0.0000E+00
                  0.0000E+00
                  0.0000E+00
                  0.0000E+00
                  0.0000E+00
                  0.0000E+00
                  0.0000E+00
                  0.0000E+00
                  0.0000E+00
                  0.0000E+00
                  0.0000E+00
                  0.0000E+00
                  0.0000E+00
                  0.0000E+00
                  0.0000E+00
                  0.0000E+00
                  0.0000E+00
                  0.0000E+00
                  0.0000E+00
                  0.0000E+00
                  0.0000E+00
                  0.0000E+00
                  0.0000E+00
                  0.0000E+00
                  0.0000E+00
                  0.0000E+00
                  0.0000E+00
                  0.0000E+00
                  0.0000E+00
                  0.0000E+00
                  0.0000E+00
                  0.0000E+00
                  0.0000E+00
                  0.0000E+00
                  0.0000E+00
                  0.0000E+00
                  0.0000E+00
                  0.0000E+00
                  0.0000E+00
                  0.0000E+00
                  0.0000E+00
                  0.0000E+00
                  0.0000E+00
                  0.0000E+00
                  0.0000E+00
                  0.0000E+00
                  0.0000E+00
                  0.0000E+00
                  0.0000E+00
                  0.0000E+00
                  0.0000E+00
                  0.0000E+00
                  0.0000E+00
                  0.0000E+00
                  0.0000E+00
                  0.0000E+00
                  0.0000E+00
                  0.0000E+00
                  0.0000E+00
                  0.0000E+00
                  0.0000E+00
                  0.0000E+00
                  0.0000E+00
                  0.0000E+00
                  0.0000E+00
                  0.0000E+00
                  0.0000E+00
                  0.0000E+00
                  0.0000E+00
                  0.0000E+00
                  0.0000E+00
                  0.0000E+00
                  0.0000E+00
                  0.0000E+00
                  0.0000E+00
                  0.0000E+00
                  0.0000E+00
                  0.0000E+00
                  0.0000E+00
                  0.0000E+00
                  0.0000E+00
                  0.0000E+00
                  0.0000E+00
                  0.0000E+00
                  0.0000E+00
                  0.0000E+00
                  0.0000E+00
                  0.0000E+00
                  0.0000E+00
                  0.0000E+00
                  0.0000E+00
                  0.0000E+00
                  0.0000E+00
                  0.0000E+00
                  0.0000E+00
                  0.0000E+00
                  0.0000E+00
                  0.0000E+00
                  0.0000E+00
                  0.0000E+00
                  0.0000E+00
                  0.0000E+00
                  0.0000E+00
                  0.0000E+00
                  0.0000E+00
                  0.0000E+00
                  0.0000E+00
                  0.0000E+00
                  0.0000E+00
                  0.0000E+00
                  0.0000E+00
                  0.0000E+00
                  0.0000E+00
                  0.0000E+00
                  0.0000E+00
                  0.0000E+00
                  0.0000E+00
                  0.0000E+00
                  0.0000E+00
                  0.0000E+00
                  0.0000E+00
                  0.0000E+00
                  0.0000E+00
                  0.0000E+00
                  0.0000E+00
                  0.0000E+00
                  0.0000E+00
                  0.0000E+00
                  0.0000E+00
                  0.0000E+00
                  0.0000E+00
                  0.0000E+00
                  0.0000E+00
                  0.0000E+00
                  0.0000E+00
                  0.0000E+00
                  0.0000E+00
                  0.0000E+00
                  0.0000E+00
                  0.0000E+00
                  0.0000E+00
                  0.0000E+00
                  0.0000E+00
                  0.0000E+00
                  0.0000E+00
                  0.0000E+00
                  0.0000E+00
                  0.0000E+00
                  0.0000E+00
                  0.0000E+00
                  0.0000E+00
                  0.0000E+00
                  0.0000E+00
                  0.0000E+00
                  0.0000E+00
                  0.0000E+00
                  0.0000E+00
                  0.0000E+00
                  0.0000E+00
                  0.0000E+00
                  0.0000E+00
                  0.0000E+00
                  0.0000E+00
                  0.0000E+00
                  0.0000E+00
                  0.0000E+00
                  0.0000E+00
                  0.0000E+00
                  0.0000E+00
                  0.0000E+00
                  0.0000E+00
                  0.0000E+00
                  0.0000E+00
                  0.0000E+00
                  0.0000E+00
                  0.0000E+00
                  0.0000E+00
                  0.0000E+00
                  0.0000E+00
                  0.0000E+00
                  0.0000E+00
                  0.0000E+00
                  0.0000E+00
                  0.0000E+00
                  0.0000E+00
                  0.0000E+00
                  0.0000E+00
                  0.0000E+00
                  0.0000E+00
                  0.0000E+00
                  0.0000E+00
                  0.0000E+00
                  0.0000E+00
                  0.0000E+00
                  0.0000E+00
                  0.0000E+00
                  0.0000E+00
                  0.0000E+00
                  0.0000E+00
                  0.0000E+00
                  0.0000E+00
                  0.0000E+00
                  0.0000E+00
                  0.0000E+00
                  0.0000E+00
                  0.0000E+00
                  0.0000E+00
                  0.0000E+00
                  0.0000E+00
                  0.0000E+00
                  0.0000E+00
                  0.0000E+00
                  0.0000E+00
                  0.0000E+00
                  0.0000E+00
                  0.0000E+00
                  0.0000E+00
                  0.0000E+00
                  0.0000E+00
                  0.0000E+00
                  0.0000E+00
                  0.0000E+00
                  0.0000E+00
                  0.0000E+00
                  0.0000E+00
                  0.0000E+00
                  0.0000E+00
                  0.0000E+00
                  0.0000E+00
                  0.0000E+00
                  0.0000E+00
                  0.0000E+00
                  0.0000E+00
                  0.0000E+00
                  0.0000E+00
                  0.0000E+00
                  0.0000E+00
                  0.0000E+00
                  0.0000E+00
                  0.0000E+00
                  0.0000E+00
                  0.0000E+00
                  0.0000E+00
                  0.0000E+00
                  0.0000E+00
                  0.0000E+00
                  0.0000E+00
                  0.0000E+00
                  0.0000E+00
                  0.0000E+00
                  0.0000E+00
                  0.0000E+00
                  0.0000E+00
                  0.0000E+00
                  0.0000E+00
                  0.0000E+00
                  0.0000E+00
                  0.0000E+00
                  0.0000E+00
                  0.0000E+00
                  0.0000E+00
                  0.0000E+00
                  0.0000E+00
                  0.0000E+00
                  0.0000E+00
                  0.0000E+00
                  0.0000E+00
                  0.0000E+00
                  0.0000E+00
                  0.0000E+00
                  0.0000E+00
                  0.0000E+00
                  0.0000E+00
                  0.0000E+00
                  0.0000E+00
                  0.0000E+00
                  0.0000E+00
                  0.0000E+00
                  0.0000E+00
                  0.0000E+00
                  0.0000E+00
                  0.0000E+00
                  0.0000E+00
                  0.0000E+00
                  0.0000E+00
                  0.0000E+00
                  0.0000E+00
                  0.0000E+00
                  0.0000E+00
                  0.0000E+00
                  0.0000E+00
                  0.0000E+00
                  0.0000E+00
                  0.0000E+00
                  0.0000E+00
                  0.0000E+00
                  0.0000E+00
                  0.0000E+00
                  0.0000E+00
                  0.0000E+00
                  0.0000E+00
                  0.0000E+00
                  0.0000E+00
                  0.0000E+00
                  0.0000E+00
                  0.0000E+00
                  0.0000E+00
                  0.0000E+00
                  0.0000E+00
                  0.0000E+00
                  0.0000E+00
                  0.0000E+00
                  0.0000E+00
                  0.0000E+00
                  0.0000E+00
                  0.0000E+00
                  0.0000E+00
                  0.0000E+00
                  0.0000E+00
                  0.0000E+00
                  0.0000E+00
                  0.0000E+00
                  0.0000E+00
                  0.0000E+00
                  0.0000E+00
                  0.0000E+00
                  0.0000E+00
                  0.0000E+00
                  0.0000E+00
                  0.0000E+00
                  0.0000E+00
                  0.0000E+00
                  0.0000E+00
                  0.0000E+00
                  0.0000E+00
                  0.0000E+00
                  0.0000E+00
                  0.0000E+00
                  0.0000E+00
                  0.0000E+00
                  0.0000E+00
                  0.0000E+00
                  0.0000E+00
                  0.0000E+00
                  0.0000E+00
                  0.0000E+00
                  0.0000E+00
                  0.0000E+00
                  0.0000E+00
                  0.0000E+00
                  0.0000E+00
                  0.0000E+00
                  0.0000E+00
                  0.0000E+00
                  0.0000E+00
                  0.0000E+00
                  0.0000E+00
                  0.0000E+00
                  0.0000E+00
                  0.0000E+00
                  0.0000E+00
                  0.0000E+00
                  0.0000E+00
                  0.0000E+00
                  0.0000E+00
                  0.0000E+00
                  0.0000E+00
                  0.0000E+00
                  0.0000E+00
                  0.0000E+00
                  0.0000E+00
                  0.0000E+00
                  0.0000E+00
                  0.0000E+00
                  0.0000E+00
                  0.0000E+00
                  0.0000E+00
                  0.0000E+00
                  0.0000E+00
                  0.0000E+00
                  0.0000E+00
                  0.0000E+00
                  0.0000E+00
                  0.0000E+00
                  0.0000E+00
                  0.0000E+00
                  0.0000E+00
                  0.0000E+00
                  0.0000E+00
                  0.0000E+00
                  0.0000E+00
                  0.0000E+00
                  0.0000E+00
                  0.0000E+00
                  0.0000E+00
                  0.0000E+00
                  0.0000E+00
                  0.0000E+00
                  0.0000E+00
                  0.0000E+00
                  0.0000E+00
                  0.0000E+00
                  0.0000E+00
                  0.0000E+00
                  0.0000E+00
                  0.0000E+00
                  0.0000E+00
                  0.0000E+00
                  0.0000E+00
                  0.0000E+00
                  0.0000E+00
                  0.0000E+00
                  0.0000E+00
                  0.0000E+00
                  0.0000E+00
                  0.0000E+00
                  0.0000E+00
                  0.0000E+00
                  0.0000E+00
                  0.0000E+00
                  0.0000E+00
                  0.0000E+00
                  0.0000E+00
                  0.0000E+00
                  0.0000E+00
                  0.0000E+00
                  0.0000E+00
                  0.0000E+00
                  0.0000E+00
                  0.0000E+00
                  0.0000E+00
                  0.0000E+00
                  0.0000E+00
                  0.0000E+00
                  0.0000E+00
                  0.0000E+00
                  0.0000E+00
                  0.0000E+00
                  0.0000E+00
                  0.0000E+00
                  0.0000E+00
                  0.0000E+00
                  0.0000E+00
                  0.0000E+00
                  0.0000E+00
                  0.0000E+00
                  0.0000E+00
                  0.0000E+00
                  0.0000E+00
                  0.0000E+00
                  0.0000E+00
                  0.0000E+00
                  0.0000E+00
                  0.0000E+00
                  0.0000E+00
                  0.0000E+00
                  0.0000E+00
                  0.0000E+00
                  0.0000E+00
                  0.0000E+00
                  0.0000E+00
                  0.0000E+00
                  0.0000E+00
                  0.0000E+00
                  0.0000E+00
                  0.0000E+00
                  0.0000E+00
                  0.0000E+00
                  0.0000E+00
                  0.0000E+00
                  0.0000E+00
                  0.0000E+00
                  0.0000E+00
                  0.0000E+00
                  0.0000E+00
                  0.0000E+00
                  0.0000E+00
                  0.0000E+00
                  0.0000E+00
                  0.0000E+00
                  0.0000E+00
                  0.0000E+00
                  0.0000E+00
                  0.0000E+00
                  0.0000E+00
                  0.0000E+00
                  0.0000E+00
                  0.0000E+00
                  0.0000E+00
                  0.0000E+00
                  0.0000E+00
                  0.0000E+00
                  0.0000E+00
                  0.0000E+00
                  0.0000E+00
                  0.0000E+00
                  0.0000E+00
                  0.0000E+00
                  0.0000E+00
                  0.0000E+00
                  0.0000E+00
                  0.0000E+00
                  0.0000E+00
                  0.0000E+00
                  0.0000E+00
                  0.0000E+00
                  0.0000E+00
                  0.0000E+00
                  0.0000E+00
                  0.0000E+00
                  0.0000E+00
                  0.0000E+00
                  0.0000E+00
                  0.0000E+00
                  0.0000E+00
                  0.0000E+00
                  0.0000E+00
                  0.0000E+00
                  0.0000E+00
                  0.0000E+00
                  0.0000E+00
                  0.0000E+00
                  0.0000E+00
                  0.0000E+00
                  0.0000E+00
                  0.0000E+00
                  0.0000E+00
                  0.0000E+00
                  0.0000E+00
                  0.0000E+00
                  0.0000E+00
                  0.0000E+00
                  0.0000E+00
                  0.0000E+00
                  0.0000E+00
                  0.0000E+00
                  0.0000E+00
                  0.0000E+00
                  0.0000E+00
                  0.0000E+00
                  0.0000E+00
                  0.0000E+00
                  0.0000E+00
                  0.0000E+00
                  0.0000E+00
                  0.0000E+00
                  0.0000E+00
                  0.0000E+00
                  0.0000E+00
                  0.0000E+00
                  0.0000E+00
                  0.0000E+00
                  0.0000E+00
                  0.0000E+00
                  0.0000E+00
                  0.0000E+00
                  0.0000E+00
                  0.0000E+00
                  0.0000E+00
                  0.0000E+00
                  0.0000E+00
                  0.0000E+00
                  0.0000E+00
                  0.0000E+00
                  0.0000E+00
                  0.0000E+00
                  0.0000E+00
                  0.0000E+00
                  0.0000E+00
                  0.0000E+00
                  0.0000E+00
                  0.0000E+00
                  0.0000E+00
                  0.0000E+00
                  0.0000E+00
                  0.0000E+00
                  0.0000E+00
                  0.0000E+00
                  0.0000E+00
                  0.0000E+00
                  0.0000E+00
                  0.0000E+00
                  0.0000E+00
                  0.0000E+00
                  0.0000E+00
                  0.0000E+00
                  0.0000E+00
                  0.0000E+00
                  0.0000E+00
                  0.0000E+00
                  0.0000E+00
                  0.0000E+00
                  0.0000E+00
                  0.0000E+00
                  0.0000E+00
                  0.0000E+00
                  0.0000E+00
                  0.0000E+00
                  0.0000E+00
                  0.0000E+00
                  0.0000E+00
                  0.0000E+00
                  0.0000E+00