<?xml version="1.0"?>
<VTKFile type="UnstructuredGrid" version="0.1" byte_order="BigEndian">
<UnstructuredGrid>
    <Piece NumberOfPoints="4000" NumberOfCells="4000">
        <Points>
             <DataArray type="Float32" NumberOfComponents="3" Format="ascii">
                  0.2027E-01    0.1250E-01    0.1250E-01
                  0.4999E-01    0.1250E-01    0.1250E-01
                  0.8603E-01    0.1250E-01    0.1250E-01
                  0.1081E+00    0.1250E-01    0.1250E-01
                  0.1355E+00    0.1250E-01    0.1250E-01
                  0.1480E+00    0.1250E-01    0.1250E-01
                  0.1921E+00    0.1250E-01    0.1250E-01
                  0.2146E+00    0.1250E-01    0.1250E-01
                  0.2360E+00    0.1250E-01    0.1250E-01
                  0.2633E+00    0.1250E-01    0.1250E-01
                  0.2975E+00    0.1250E-01    0.1250E-01
                  0.3243E+00    0.1250E-01    0.1250E-01
                  0.3464E+00    0.1250E-01    0.1250E-01
                  0.3873E+00    0.1250E-01    0.1250E-01
                  0.4084E+00    0.1250E-01    0.1250E-01
                  0.4411E+00    0.1250E-01    0.1250E-01
                  0.4671E+00    0.1250E-01    0.1250E-01
                  0.4961E+00    0.1250E-01    0.1250E-01
                  0.5066E+00    0.1250E-01    0.1250E-01
                  0.5496E+00    0.1250E-01    0.1250E-01
                  0.5688E+00    0.1250E-01    0.1250E-01
                  0.5946E+00    0.1250E-01    0.1250E-01
                  0.6122E+00    0.1250E-01    0.1250E-01
                  0.6282E+00    0.1250E-01    0.1250E-01
                  0.6476E+00    0.1250E-01    0.1250E-01
                  0.6607E+00    0.1250E-01    0.1250E-01
                  0.6699E+00    0.1250E-01    0.1250E-01
                  0.7213E+00    0.1250E-01    0.1250E-01
                  0.7574E+00    0.1250E-01    0.1250E-01
                  0.8077E+00    0.1250E-01    0.1250E-01
                  0.8310E+00    0.1250E-01    0.1250E-01
                  0.8594E+00    0.1250E-01    0.1250E-01
                  0.9059E+00    0.1250E-01    0.1250E-01
                  0.9305E+00    0.1250E-01    0.1250E-01
                  0.9494E+00    0.1250E-01    0.1250E-01
                  0.9898E+00    0.1250E-01    0.1250E-01
                  0.1003E+01    0.1250E-01    0.1250E-01
                  0.1064E+01    0.1250E-01    0.1250E-01
                  0.1090E+01    0.1250E-01    0.1250E-01
                  0.1116E+01    0.1250E-01    0.1250E-01
                  0.1131E+01    0.1250E-01    0.1250E-01
                  0.1145E+01    0.1250E-01    0.1250E-01
                  0.1160E+01    0.1250E-01    0.1250E-01
                  0.1175E+01    0.1250E-01    0.1250E-01
                  0.1196E+01    0.1250E-01    0.1250E-01
                  0.1214E+01    0.1250E-01    0.1250E-01
                  0.1264E+01    0.1250E-01    0.1250E-01
                  0.1292E+01    0.1250E-01    0.1250E-01
                  0.1312E+01    0.1250E-01    0.1250E-01
                  0.1322E+01    0.1250E-01    0.1250E-01
                  0.1348E+01    0.1250E-01    0.1250E-01
                  0.1373E+01    0.1250E-01    0.1250E-01
                  0.1401E+01    0.1250E-01    0.1250E-01
                  0.1413E+01    0.1250E-01    0.1250E-01
                  0.1439E+01    0.1250E-01    0.1250E-01
                  0.1458E+01    0.1250E-01    0.1250E-01
                  0.1485E+01    0.1250E-01    0.1250E-01
                  0.1500E+01    0.1250E-01    0.1250E-01
                  0.1510E+01    0.1250E-01    0.1250E-01
                  0.1533E+01    0.1250E-01    0.1250E-01
                  0.1554E+01    0.1250E-01    0.1250E-01
                  0.1573E+01    0.1250E-01    0.1250E-01
                  0.1597E+01    0.1250E-01    0.1250E-01
                  0.1626E+01    0.1250E-01    0.1250E-01
                  0.1683E+01    0.1250E-01    0.1250E-01
                  0.1714E+01    0.1250E-01    0.1250E-01
                  0.1725E+01    0.1250E-01    0.1250E-01
                  0.1747E+01    0.1250E-01    0.1250E-01
                  0.1782E+01    0.1250E-01    0.1250E-01
                  0.1802E+01    0.1250E-01    0.1250E-01
                  0.1817E+01    0.1250E-01    0.1250E-01
                  0.1840E+01    0.1250E-01    0.1250E-01
                  0.1874E+01    0.1250E-01    0.1250E-01
                  0.1909E+01    0.1250E-01    0.1250E-01
                  0.1951E+01    0.1250E-01    0.1250E-01
                  0.1966E+01    0.1250E-01    0.1250E-01
                  0.1992E+01    0.1250E-01    0.1250E-01
                  0.2018E+01    0.1250E-01    0.1250E-01
                  0.2028E+01    0.1250E-01    0.1250E-01
                  0.2077E+01    0.1250E-01    0.1250E-01
                  0.2108E+01    0.1250E-01    0.1250E-01
                  0.2132E+01    0.1250E-01    0.1250E-01
                  0.2158E+01    0.1250E-01    0.1250E-01
                  0.2169E+01    0.1250E-01    0.1250E-01
                  0.2193E+01    0.1250E-01    0.1250E-01
                  0.2239E+01    0.1250E-01    0.1250E-01
                  0.2260E+01    0.1250E-01    0.1250E-01
                  0.2294E+01    0.1250E-01    0.1250E-01
                  0.2333E+01    0.1250E-01    0.1250E-01
                  0.2352E+01    0.1250E-01    0.1250E-01
                  0.2369E+01    0.1250E-01    0.1250E-01
                  0.2402E+01    0.1250E-01    0.1250E-01
                  0.2424E+01    0.1250E-01    0.1250E-01
                  0.2462E+01    0.1250E-01    0.1250E-01
                  0.2513E+01    0.1250E-01    0.1250E-01
                  0.2544E+01    0.1250E-01    0.1250E-01
                  0.2566E+01    0.1250E-01    0.1250E-01
                  0.2598E+01    0.1250E-01    0.1250E-01
                  0.2623E+01    0.1250E-01    0.1250E-01
                  0.2666E+01    0.1250E-01    0.1250E-01
                  0.2685E+01    0.1250E-01    0.1250E-01
                  0.2709E+01    0.1250E-01    0.1250E-01
                  0.2718E+01    0.1250E-01    0.1250E-01
                  0.2747E+01    0.1250E-01    0.1250E-01
                  0.2771E+01    0.1250E-01    0.1250E-01
                  0.2798E+01    0.1250E-01    0.1250E-01
                  0.2813E+01    0.1250E-01    0.1250E-01
                  0.2834E+01    0.1250E-01    0.1250E-01
                  0.2860E+01    0.1250E-01    0.1250E-01
                  0.2870E+01    0.1250E-01    0.1250E-01
                  0.2896E+01    0.1250E-01    0.1250E-01
                  0.2928E+01    0.1250E-01    0.1250E-01
                  0.2963E+01    0.1250E-01    0.1250E-01
                  0.2993E+01    0.1250E-01    0.1250E-01
                  0.3023E+01    0.1250E-01    0.1250E-01
                  0.3042E+01    0.1250E-01    0.1250E-01
                  0.3058E+01    0.1250E-01    0.1250E-01
                  0.3085E+01    0.1250E-01    0.1250E-01
                  0.3107E+01    0.1250E-01    0.1250E-01
                  0.3127E+01    0.1250E-01    0.1250E-01
                  0.3162E+01    0.1250E-01    0.1250E-01
                  0.3187E+01    0.1250E-01    0.1250E-01
                  0.3197E+01    0.1250E-01    0.1250E-01
                  0.3238E+01    0.1250E-01    0.1250E-01
                  0.3275E+01    0.1250E-01    0.1250E-01
                  0.3319E+01    0.1250E-01    0.1250E-01
                  0.3328E+01    0.1250E-01    0.1250E-01
                  0.3347E+01    0.1250E-01    0.1250E-01
                  0.3374E+01    0.1250E-01    0.1250E-01
                  0.3414E+01    0.1250E-01    0.1250E-01
                  0.3435E+01    0.1250E-01    0.1250E-01
                  0.3510E+01    0.1250E-01    0.1250E-01
                  0.3532E+01    0.1250E-01    0.1250E-01
                  0.3549E+01    0.1250E-01    0.1250E-01
                  0.3580E+01    0.1250E-01    0.1250E-01
                  0.3623E+01    0.1250E-01    0.1250E-01
                  0.3660E+01    0.1250E-01    0.1250E-01
                  0.3681E+01    0.1250E-01    0.1250E-01
                  0.3712E+01    0.1250E-01    0.1250E-01
                  0.3732E+01    0.1250E-01    0.1250E-01
                  0.3762E+01    0.1250E-01    0.1250E-01
                  0.3775E+01    0.1250E-01    0.1250E-01
                  0.3809E+01    0.1250E-01    0.1250E-01
                  0.3820E+01    0.1250E-01    0.1250E-01
                  0.3864E+01    0.1250E-01    0.1250E-01
                  0.3933E+01    0.1250E-01    0.1250E-01
                  0.3964E+01    0.1250E-01    0.1250E-01
                  0.3993E+01    0.1250E-01    0.1250E-01
                  0.4023E+01    0.1250E-01    0.1250E-01
                  0.4051E+01    0.1250E-01    0.1250E-01
                  0.4084E+01    0.1250E-01    0.1250E-01
                  0.4119E+01    0.1250E-01    0.1250E-01
                  0.4141E+01    0.1250E-01    0.1250E-01
                  0.4164E+01    0.1250E-01    0.1250E-01
                  0.4180E+01    0.1250E-01    0.1250E-01
                  0.4213E+01    0.1250E-01    0.1250E-01
                  0.4233E+01    0.1250E-01    0.1250E-01
                  0.4246E+01    0.1250E-01    0.1250E-01
                  0.4268E+01    0.1250E-01    0.1250E-01
                  0.4281E+01    0.1250E-01    0.1250E-01
                  0.4297E+01    0.1250E-01    0.1250E-01
                  0.4310E+01    0.1250E-01    0.1250E-01
                  0.4327E+01    0.1250E-01    0.1250E-01
                  0.4393E+01    0.1250E-01    0.1250E-01
                  0.4435E+01    0.1250E-01    0.1250E-01
                  0.4461E+01    0.1250E-01    0.1250E-01
                  0.4506E+01    0.1250E-01    0.1250E-01
                  0.4526E+01    0.1250E-01    0.1250E-01
                  0.4562E+01    0.1250E-01    0.1250E-01
                  0.4596E+01    0.1250E-01    0.1250E-01
[...]
        <PointData Scalars="scalars">
            <DataArray type="Float32" Name="seqv" Format="ascii">
                  0.0000E+00
                  0.0000E+00
                  0.0000E+00
                  0.0000E+00
                  0.0000E+00
                  0.0000E+00
                  0.0000E+00
                  0.0000E+00
                  0.0000E+00
                  0.0000E+00
                  0.0000E+00
                  0.0000E+00
                  0.0000E+00
                  0.0000E+00
                  0.0000E+00
                  0.0000E+00
                  0.0000E+00
                  0.0000E+00
                  0.0000E+00
                  0.0000E+00
                  0.0000E+00
                  0.0000E+00
                  0.0000E+00
                  0.0000E+00
                  0.0000E+00
                  0.0000E+00
                  0.0000E+00
                  0.0000E+00
                  0.0000E+00
                  0.0000E+00
                  0.0000E+00
                  0.0000E+00
                  0.0000E+00
                  0.0000E+00
                  0.0000E+00
                  0.0000E+00
                  0.0000E+00
                  0.0000E+00
                  0.0000E+00
                  0.0000E+00
                  0.0000E+00
                  0.0000E+00
                  0.0000E+00
                  0.0000E+00
                  0.0000E+00
                  0.0000E+00
                  0.0000E+00
                  0.0000E+00
                  0.0000E+00
                  0.0000E+00
                  0.0000E+00
                  0.0000E+00
                  0.0000E+00
                  0.0000E+00
                  0.0000E+00
                  0.0000E+00
                  0.0000E+00
                  0.0000E+00
                  0.0000E+00
                  0.0000E+00
                  0.0000E+00
                  0.0000E+00
                  0.0000E+00
                  0.0000E+00
                  0.0000E+00
                  0.0000E+00
                  0.0000E+00
                  0.0000E+00
                  0.0000E+00
                  0.0000E+00
                  0.0000E+00
                  0.0000E+00
                  0.0000E+00
                  0.0000E+00
                  0.0000E+00
                  0.0000E+00
                  0.0000E+00
                  0.0000E+00
                  0.0000E+00
                  0.0000E+00
                  0.0000E+00
                  0.0000E+00
                  0.0000E+00
                  0.0000E+00
                  0.0000E+00
                  0.0000E+00
                  0.0000E+00
                  0.0000E+00
                  0.0000E+00
                  0.0000E+00
                  0.0000E+00
                  0.0000E+00
                  0.0000E+00
                  0.0000E+00
                  0.0000E+00
                  0.0000E+00
                  0.0000E+00
                  0.0000E+00
                  0.0000E+00
                  0.0000E+00
                  0.0000E+00
                  0.0000E+00
                  0.0000E+00
                  0.0000E+00
                  0.0000E+00
                  0.0000E+00
                  0.0000E+00
                  0.0000E+00
                  0.0000E+00
                  0.0000E+00
                  0.0000E+00
                  0.0000E+00
                  0.0000E+00
                  0.0000E+00
                  0.0000E+00
                  0.0000E+00
                  0.0000E+00
                  0.0000E+00
                  0.0000E+00
                  0.0000E+00
                  0.0000E+00
                  0.0000E+00
                  0.0000E+00
                  0.0000E+00
                  0.0000E+00
                  0.0000E+00
                  0.0000E+00
                  0.0000E+00
                  0.0000E+00
                  0.0000E+00
                  0.0000E+00
                  0.0000E+00
                  0.0000E+00
                  0.0000E+00
                  0.0000E+00
                  0.0000E+00
                  0.0000E+00
                  0.0000E+00
                  0.0000E+00
                  0.0000E+00
                  0.0000E+00
                  0.0000E+00
                  0.0000E+00
                  0.0000E+00
                  0.0000E+00
                  0.0000E+00
                  0.0000E+00
                  0.0000E+00
                  0.0000E+00
                  0.0000E+00
                  0.0000E+00
                  0.0000E+00
                  0.0000E+00
                  0.0000E+00
                  0.0000E+00
                  0.0000E+00
                  0.0000E+00
                  0.0000E+00
                  0.0000E+00
                  0.0000E+00
                  0.0000E+00
                  0.0000E+00
                  0.0000E+00
                  0.0000E+00
                  0.0000E+00
                  0.0000E+00
                  0.0000E+00
                  0.0000E+00
                  0.0000E+00
                  0.0000E+00
                  0.0000E+00
                  0.0000E+00
                  0.0000E+00
                  0.0000E+00
                  0.0000E+00
                  0.0000E+00
                  0.0000E+00
                  0.0000E+00
                  0.0000E+00
                  0.0000E+00
                  0.0000E+00
                  0.0000E+00
                  0.0000E+00
                  0.0000E+00
                  0.0000E+00
                  0.0000E+00
                  0.0000E+00
                  0.0000E+00
                  0.0000E+00
                  0.0000E+00
                  0.0000E+00
                  0.0000E+00
                  0.0000E+00
                  0.0000E+00
                  0.0000E+00
                  0.0000E+00
                  0.0000E+00
                  0.0000E+00
                  0.0000E+00
                  0.0000E+00
                  0.0000E+00
                  0.0000E+00
                  0.0000E+00
                  0.0000E+00
                  0.0000E+00
                  0.0000E+00
                  0.0000E+00
                  0.0000E+00
                  0.0000E+00
                  0.0000E+00
                  0.0000E+00
                  0.0000E+00
                  0.0000E+00
                  0.0000E+00
                  0.0000E+00
                  0.0000E+00
                  0.0000E+00
                  0.0000E+00
                  0.0000E+00
                  0.0000E+00
                  0.0000E+00
                  0.0000E+00
                  0.0000E+00
                  0.0000E+00
                  0.0000E+00
                  0.0000E+00
                  0.0000E+00
                  0.0000E+00
                  0.0000E+00
                  0.0000E+00
                  0.0000E+00
                  0.0000E+00
                  0.0000E+00
                  0.0000E+00
                  0.0000E+00
                  0.0000E+00
                  0.0000E+00
                  0.0000E+00
                  0.0000E+00
                  0.0000E+00
                  0.0000E+00
                  0.0000E+00
                  0.0000E+00
                  0.0000E+00
                  0.0000E+00
                  0.0000E+00
                  0.0000E+00
                  0.0000E+00
                  0.0000E+00
                  0.0000E+00
                  0.0000E+00
                  0.0000E+00
                  0.0000E+00
                  0.0000E+00
                  0.0000E+00
                  0.0000E+00
                  0.0000E+00
                  0.0000E+00
                  0.0000E+00
                  0.0000E+00
                  0.0000E+00
                  0.0000E+00
                  0.0000E+00
                  0.0000E+00
                  0.0000E+00
                  0.0000E+00
                  0.0000E+00
                  0.0000E+00
                  0.0000E+00
                  0.0000E+00
                  0.0000E+00
                  0.0000E+00
                  0.0000E+00
                  0.0000E+00
                  0.0000E+00
                  0.0000E+00
                  0.0000E+00
                  0.0000E+00
                  0.0000E+00
                  0.0000E+00
                  0.0000E+00
                  0.0000E+00
                  0.0000E+00
                  0.0000E+00
                  0.0000E+00
                  0.0000E+00
                  0.0000E+00
                  0.0000E+00
                  0.0000E+00
                  0.0000E+00
                  0.0000E+00
                  0.0000E+00
                  0.0000E+00
                  0.0000E+00
                  0.0000E+00
                  0.0000E+00
                  0.0000E+00
                  0.0000E+00
                  0.0000E+00
                  0.0000E+00
                  0.0000E+00
                  0.0000E+00
                  0.0000E+00
                  0.0000E+00
                  0.0000E+00
                  0.0000E+00
                  0.0000E+00
                  0.0000E+00
                  0.0000E+00
                  0.0000E+00
                  0.0000E+00
                  0.0000E+00
                  0.0000E+00
                  0.0000E+00
                  0.0000E+00
                  0.0000E+00
                  0.0000E+00
                  0.0000E+00
                  0.0000E+00
                  0.0000E+00
                  0.0000E+00
                  0.0000E+00
                  0.0000E+00
                  0.0000E+00
                  0.0000E+00
                  0.0000E+00
                  0.0000E+00
                  0.0000E+00
                  0.0000E+00
                  0.0000E+00
                  0.0000E+00
                  0.0000E+00
                  0.0000E+00
                  0.0000E+00
                  0.0000E+00
                  0.0000E+00
                  0.0000E+00
                  0.0000E+00
                  0.0000E+00
                  0.0000E+00
                  0.0000E+00
                  0.0000E+00
                  0.0000E+00
                  0.0000E+00
                  0.0000E+00
                  0.0000E+00
                  0.0000E+00
                  0.0000E+00
                  0.0000E+00
                  0.0000E+00
                  0.0000E+00
                  0.0000E+00
                  0.0000E+00
                  0.0000E+00
                  0.0000E+00
                  0.0000E+00
                  0.0000E+00
                  0.0000E+00
                  0.0000E+00
                  0.0000E+00
                  0.0000E+00
                  0.0000E+00
                  0.0000E+00
                  0.0000E+00
                  0.0000E+00
                  0.0000E+00
                  0.0000E+00
                  0.0000E+00
                  0.0000E+00
                  0.0000E+00
                  0.0000E+00
                  0.0000E+00
                  0.0000E+00
                  0.0000E+00
                  0.0000E+00
                  0.0000E+00
                  0.0000E+00
                  0.0000E+00
                  0.0000E+00
                  0.0000E+00
                  0.0000E+00
                  0.0000E+00
                  0.0000E+00
                  0.0000E+00
                  0.0000E+00
                  0.0000E+00
                  0.0000E+00
                  0.0000E+00
                  0.0000E+00
                  0.0000E+00
                  0.0000E+00
                  0.0000E+00
                  0.0000E+00
                  0.0000E+00
                  0.0000E+00
                  0.0000E+00
                  0.0000E+00
                  0.0000E+00
                  0.0000E+00
                  0.0000E+00
                  0.0000E+00
                  0.0000E+00
                  0.0000E+00
                  0.0000E+00
                  0.0000E+00
                  0.0000E+00
                  0.0000E+00
                  0.0000E+00
                  0.0000E+00
                  0.0000E+00
                  0.0000E+00
                  0.0000E+00
                  0.0000E+00
                  0.0000E+00
                  0.0000E+00
                  0.0000E+00
                  0.0000E+00
                  0.0000E+00
                  0.0000E+00
                  0.0000E+00
                  0.0000E+00
                  0.0000E+00
                  0.0000E+00
                  0.0000E+00
                  0.0000E+00
                  0.0000E+00
                  0.0000E+00
                  0.0000E+00
                  0.0000E+00
                  0.0000E+00
                  0.0000E+00
                  0.0000E+00
                  0.0000E+00
                  0.0000E+00
                  0.0000E+00
                  0.0000E+00
                  0.0000E+00
                  0.0000E+00
                  0.0000E+00
                  0.0000E+00
                  0.0000E+00
                  0.0000E+00
                  0.0000E+00
                  0.0000E+00
                  0.0000E+00
                  0.0000E+00
                  0.0000E+00
                  0.0000E+00
                  0.0000E+00
                  0.0000E+00
                  0.0000E+00
                  0.0000E+00
                  0.0000E+00
                  0.0000E+00
                  0.0000E+00
                  0.0000E+00
                  0.0000E+00
                  0.0000E+00
                  0.0000E+00
                  0.0000E+00
                  0.0000E+00
                  0.0000E+00
                  0.0000E+00
                  0.0000E+00
                  0.0000E+00
                  0.0000E+00
                  0.0000E+00
                  0.0000E+00
                  0.0000E+00
                  0.0000E+00
                  0.0000E+00
                  0.0000E+00
                  0.0000E+00
                  0.0000E+00
                  0.0000E+00
                  0.0000E+00
                  0.0000E+00
                  0.0000E+00
                  0.0000E+00
                  0.0000E+00
                  0.0000E+00
                  0.0000E+00
                  0.0000E+00
                  0.0000E+00
                  0.0000E+00
                  0.0000E+00
                  0.0000E+00
                  0.0000E+00
                  0.0000E+00
                  0.0000E+00
                  0.0000E+00
                  0.0000E+00
                  0.0000E+00
                  0.0000E+00
                  0.0000E+00
                  0.0000E+00
                  0.0000E+00
                  0.0000E+00
                  0.0000E+00
                  0.0000E+00
                  0.0000E+00
                  0.0000E+00
                  0.0000E+00
                  0.0000E+00
                  0.0000E+00
                  0.0000E+00
                  0.0000E+00
                  0.0000E+00
                  0.0000E+00
                  0.0000E+00
                  0.0000E+00
                  0.0000E+00
                  0.0000E+00
                  0.0000E+00
                  0.0000E+00
                  0.0000E+00
                  0.0000E+00
                  0.0000E+00
                  0.0000E+00
                  0.0000E+00
                  0.0000E+00
                  0.0000E+00
                  0.0000E+00
                  0.0000E+00
                  0.0000E+00
                  0.0000E+00
                  0.0000E+00
                  0.0000E+00
                  0.0000E+00
                  0.0000E+00
                  0.0000E+00
                  0.0000E+00
                  0.0000E+00
                  0.0000E+00
                  0.0000E+00
                  0.0000E+00
                  0.0000E+00
                  0.0000E+00
                  0.0000E+00
                  0.0000E+00
                  0.0000E+00
                  0.0000E+00
                  0.0000E+00
                  0.0000E+00
                  0.0000E+00
                  0.0000E+00
                  0.0000E+00
                  0.0000E+00
                  0.0000E+00
                  0.0000E+00
                  0.0000E+00
                  0.0000E+00
                  0.0000E+00
                  0.0000E+00
                  0.0000E+00
                  0.0000E+00
                  0.0000E+00
                  0.0000E+00
                  0.0000E+00
                  0.0000E+00
                  0.0000E+00
                  0.0000E+00
                  0.0000E+00
                  0.0000E+00
                  0.0000E+00
                  0.0000E+00
                  0.0000E+00
                  0.0000E+00
                  0.0000E+00
                  0.0000E+00
                  0.0000E+00
                  0.0000E+00
                  0.0000E+00
                  0.0000E+00
                  0.0000E+00
                  0.0000E+00
                  0.0000E+00
                  0.0000E+00
                  0.0000E+00
                  0.0000E+00
                  0.0000E+00
                  0.0000E+00
                  0.0000E+00
                  0.0000E+00
                  0.0000E+00
                  0.0000E+00
                  0.0000E+00
                  0.0000E+00
                  0.0000E+00
                  0.0000E+00
                  0.0000E+00
                  0.0000E+00
                  0.0000E+00
                  0.0000E+00
                  0.0000E+00
                  0.0000E+00
                  0.0000E+00
                  0.0000E+00
                  0.0000E+00
                  0.0000E+00
                  0.0000E+00
                  0.0000E+00
                  0.0000E+00
                  0.0000E+00
                  0.0000E+00
                  0.0000E+00
                  0.0000E+00
                  0.0000E+00
                  0.0000E+00
                  0.0000E+00
                  0.0000E+00
                  0.0000E+00
                  0.0000E+00
                  0.0000E+00
                  0.0000E+00
                  0.0000E+00
                  0.0000E+00
                  0.0000E+00
                  0.0000E+00
                  0.0000E+00
                  0.0000E+00
                  0.0000E+00
                  0.0000E+00
                  0.0000E+00
                  0.0000E+00
                  0.0000E+00
                  0.0000E+00
                  0.0000E+00
                  0.0000E+00
                  0.0000E+00
                  0.0000E+00
                  0.0000E+00
                  0.0000E+00
                  0.0000E+00
                  0.0000E+00
                  0.0000E+00
                  0.0000E+00
                  0.0000E+00
                  0.0000E+00
                  0.0000E+00
                  0.0000E+00
                  0.0000E+00
                  0.0000E+00
                  0.0000E+00
                  0.0000E+00
                  0.0000E+00
                  0.0000E+00
                  0.0000E+00
                  0.0000E+00
                  0.0000E+00
                  0.0000E+00
                  0.0000E+00
                  0.0000E+00
                  0.0000E+00
                  0.0000E+00
                  0.0000E+00
                  0.0000E+00
                  0.0000E+00
                  0.0000E+00
                  0.0000E+00
                  0.0000E+00
                  0.0000E+00
                  0.0000E+00
                  0.0000E+00
                  0.0000E+00
                  0.0000E+00
                  0.0000E+00
                  0.0000E+00
                  0.0000E+00
                  0.0000E+00
                  0.0000E+00
                  0.0000E+00
                  0.0000E+00
                  0.0000E+00
                  0.0000E+00
                  0.0000E+00
                  0.0000E+00
                  0.0000E+00
                  0.0000E+00
                  0.0000E+00
                  0.0000E+00
                  0.0000E+00
                  0.0000E+00
                  0.0000E+00
                  0.0000E+00
                  0.0000E+00