<?xml version="1.0"?>
<VTKFile type="UnstructuredGrid" version="0.1" byte_order="BigEndian">
<UnstructuredGrid>
    <Piece NumberOfPoints="4000" NumberOfCells="4000">
        <Points>
             <DataArray type="Float32" NumberOfComponents="3" Format="ascii">
                  0.2304E-01    0.1250E-01    0.1250E-01
                  0.5900E-01    0.1250E-01    0.1250E-01
                  0.9361E-01    0.1250E-01    0.1250E-01
                  0.1267E+00    0.1250E-01    0.1250E-01
                  0.1434E+00    0.1250E-01    0.1250E-01
                  0.1648E+00    0.1250E-01    0.1250E-01
                  0.1877E+00    0.1250E-01    0.1250E-01
                  0.2176E+00    0.1250E-01    0.1250E-01
                  0.2395E+00    0.1250E-01    0.1250E-01
                  0.2499E+00    0.1250E-01    0.1250E-01
                  0.2937E+00    0.1250E-01    0.1250E-01
                  0.3120E+00    0.1250E-01    0.1250E-01
                  0.3240E+00    0.1250E-01    0.1250E-01
                  0.3734E+00    0.1250E-01    0.1250E-01
                  0.4014E+00    0.1250E-01    0.1250E-01
                  0.4211E+00    0.1250E-01    0.1250E-01
                  0.4622E+00    0.1250E-01    0.1250E-01
                  0.4903E+00    0.1250E-01    0.1250E-01
                  0.5057E+00    0.1250E-01    0.1250E-01
                  0.5235E+00    0.1250E-01    0.1250E-01
                  0.5400E+00    0.1250E-01    0.1250E-01
                  0.5593E+00    0.1250E-01    0.1250E-01
                  0.6005E+00    0.1250E-01    0.1250E-01
                  0.6334E+00    0.1250E-01    0.1250E-01
                  0.6506E+00    0.1250E-01    0.1250E-01
                  0.6740E+00    0.1250E-01    0.1250E-01
                  0.6916E+00    0.1250E-01    0.1250E-01
                  0.7199E+00    0.1250E-01    0.1250E-01
                  0.7449E+00    0.1250E-01    0.1250E-01
                  0.7734E+00    0.1250E-01    0.1250E-01
                  0.7868E+00    0.1250E-01    0.1250E-01
                  0.8039E+00    0.1250E-01    0.1250E-01
                  0.8425E+00    0.1250E-01    0.1250E-01
                  0.8622E+00    0.1250E-01    0.1250E-01
                  0.8729E+00    0.1250E-01    0.1250E-01
                  0.8955E+00    0.1250E-01    0.1250E-01
                  0.9133E+00    0.1250E-01    0.1250E-01
                  0.9509E+00    0.1250E-01    0.1250E-01
                  0.9858E+00    0.1250E-01    0.1250E-01
                  0.1009E+01    0.1250E-01    0.1250E-01
                  0.1021E+01    0.1250E-01    0.1250E-01
                  0.1052E+01    0.1250E-01    0.1250E-01
                  0.1078E+01    0.1250E-01    0.1250E-01
                  0.1110E+01    0.1250E-01    0.1250E-01
                  0.1126E+01    0.1250E-01    0.1250E-01
                  0.1165E+01    0.1250E-01    0.1250E-01
                  0.1200E+01    0.1250E-01    0.1250E-01
                  0.1228E+01    0.1250E-01    0.1250E-01
                  0.1249E+01    0.1250E-01    0.1250E-01
                  0.1266E+01    0.1250E-01    0.1250E-01
                  0.1293E+01    0.1250E-01    0.1250E-01
                  0.1320E+01    0.1250E-01    0.1250E-01
                  0.1338E+01    0.1250E-01    0.1250E-01
                  0.1380E+01    0.1250E-01    0.1250E-01
                  0.1415E+01    0.1250E-01    0.1250E-01
                  0.1429E+01    0.1250E-01    0.1250E-01
                  0.1474E+01    0.1250E-01    0.1250E-01
                  0.1504E+01    0.1250E-01    0.1250E-01
                  0.1530E+01    0.1250E-01    0.1250E-01
                  0.1551E+01    0.1250E-01    0.1250E-01
                  0.1574E+01    0.1250E-01    0.1250E-01
                  0.1611E+01    0.1250E-01    0.1250E-01
                  0.1634E+01    0.1250E-01    0.1250E-01
                  0.1672E+01    0.1250E-01    0.1250E-01
                  0.1713E+01    0.1250E-01    0.1250E-01
                  0.1738E+01    0.1250E-01    0.1250E-01
                  0.1759E+01    0.1250E-01    0.1250E-01
                  0.1785E+01    0.1250E-01    0.1250E-01
                  0.1806E+01    0.1250E-01    0.1250E-01
                  0.1845E+01    0.1250E-01    0.1250E-01
                  0.1870E+01    0.1250E-01    0.1250E-01
                  0.1889E+01    0.1250E-01    0.1250E-01
                  0.1919E+01    0.1250E-01    0.1250E-01
                  0.1954E+01    0.1250E-01    0.1250E-01
                  0.2005E+01    0.1250E-01    0.1250E-01
                  0.2044E+01    0.1250E-01    0.1250E-01
                  0.2073E+01    0.1250E-01    0.1250E-01
                  0.2107E+01    0.1250E-01    0.1250E-01
                  0.2123E+01    0.1250E-01    0.1250E-01
                  0.2149E+01    0.1250E-01    0.1250E-01
                  0.2213E+01    0.1250E-01    0.1250E-01
                  0.2228E+01    0.1250E-01    0.1250E-01
                  0.2246E+01    0.1250E-01    0.1250E-01
                  0.2268E+01    0.1250E-01    0.1250E-01
                  0.2307E+01    0.1250E-01    0.1250E-01
                  0.2328E+01    0.1250E-01    0.1250E-01
                  0.2357E+01    0.1250E-01    0.1250E-01
                  0.2383E+01    0.1250E-01    0.1250E-01
                  0.2412E+01    0.1250E-01    0.1250E-01
                  0.2434E+01    0.1250E-01    0.1250E-01
                  0.2458E+01    0.1250E-01    0.1250E-01
                  0.2482E+01    0.1250E-01    0.1250E-01
                  0.2536E+01    0.1250E-01    0.1250E-01
                  0.2572E+01    0.1250E-01    0.1250E-01
                  0.2588E+01    0.1250E-01    0.1250E-01
                  0.2627E+01    0.1250E-01    0.1250E-01
                  0.2672E+01    0.1250E-01    0.1250E-01
                  0.2695E+01    0.1250E-01    0.1250E-01
                  0.2709E+01    0.1250E-01    0.1250E-01
                  0.2755E+01    0.1250E-01    0.1250E-01
                  0.2775E+01    0.1250E-01    0.1250E-01
                  0.2797E+01    0.1250E-01    0.1250E-01
                  0.2815E+01    0.1250E-01    0.1250E-01
                  0.2841E+01    0.1250E-01    0.1250E-01
                  0.2889E+01    0.1250E-01    0.1250E-01
                  0.2920E+01    0.1250E-01    0.1250E-01
                  0.2947E+01    0.1250E-01    0.1250E-01
                  0.2963E+01    0.1250E-01    0.1250E-01
                  0.2984E+01    0.1250E-01    0.1250E-01
                  0.3000E+01    0.1250E-01    0.1250E-01
                  0.3023E+01    0.1250E-01    0.1250E-01
                  0.3041E+01    0.1250E-01    0.1250E-01
                  0.3068E+01    0.1250E-01    0.1250E-01
                  0.3094E+01    0.1250E-01    0.1250E-01
                  0.3113E+01    0.1250E-01    0.1250E-01
                  0.3152E+01    0.1250E-01    0.1250E-01
                  0.3163E+01    0.1250E-01    0.1250E-01
                  0.3222E+01    0.1250E-01    0.1250E-01
                  0.3271E+01    0.1250E-01    0.1250E-01
                  0.3292E+01    0.1250E-01    0.1250E-01
                  0.3313E+01    0.1250E-01    0.1250E-01
                  0.3359E+01    0.1250E-01    0.1250E-01
                  0.3375E+01    0.1250E-01    0.1250E-01
                  0.3392E+01    0.1250E-01    0.1250E-01
                  0.3452E+01    0.1250E-01    0.1250E-01
                  0.3473E+01    0.1250E-01    0.1250E-01
                  0.3512E+01    0.1250E-01    0.1250E-01
                  0.3539E+01    0.1250E-01    0.1250E-01
                  0.3583E+01    0.1250E-01    0.1250E-01
                  0.3600E+01    0.1250E-01    0.1250E-01
                  0.3633E+01    0.1250E-01    0.1250E-01
                  0.3679E+01    0.1250E-01    0.1250E-01
                  0.3707E+01    0.1250E-01    0.1250E-01
                  0.3752E+01    0.1250E-01    0.1250E-01
                  0.3789E+01    0.1250E-01    0.1250E-01
                  0.3818E+01    0.1250E-01    0.1250E-01
                  0.3838E+01    0.1250E-01    0.1250E-01
                  0.3857E+01    0.1250E-01    0.1250E-01
                  0.3890E+01    0.1250E-01    0.1250E-01
                  0.3929E+01    0.1250E-01    0.1250E-01
                  0.3956E+01    0.1250E-01    0.1250E-01
                  0.3991E+01    0.1250E-01    0.1250E-01
                  0.4004E+01    0.1250E-01    0.1250E-01
                  0.4021E+01    0.1250E-01    0.1250E-01
                  0.4055E+01    0.1250E-01    0.1250E-01
                  0.4097E+01    0.1250E-01    0.1250E-01
                  0.4126E+01    0.1250E-01    0.1250E-01
                  0.4156E+01    0.1250E-01    0.1250E-01
                  0.4205E+01    0.1250E-01    0.1250E-01
                  0.4245E+01    0.1250E-01    0.1250E-01
                  0.4266E+01    0.1250E-01    0.1250E-01
                  0.4295E+01    0.1250E-01    0.1250E-01
                  0.4320E+01    0.1250E-01    0.1250E-01
                  0.4341E+01    0.1250E-01    0.1250E-01
                  0.4356E+01    0.1250E-01    0.1250E-01
                  0.4417E+01    0.1250E-01    0.1250E-01
                  0.4439E+01    0.1250E-01    0.1250E-01
                  0.4463E+01    0.1250E-01    0.1250E-01
                  0.4480E+01    0.1250E-01    0.1250E-01
                  0.4495E+01    0.1250E-01    0.1250E-01
                  0.4512E+01    0.1250E-01    0.1250E-01
                  0.4551E+01    0.1250E-01    0.1250E-01
                  0.4568E+01    0.1250E-01    0.1250E-01
                  0.4593E+01    0.1250E-01    0.1250E-01
                  0.4617E+01    0.1250E-01    0.1250E-01
                  0.4641E+01    0.1250E-01    0.1250E-01
                  0.4692E+01    0.1250E-01    0.1250E-01
                  0.4719E+01    0.1250E-01    0.1250E-01
                  0.4745E+01    0.1250E-01    0.1250E-01
                  0.4769E+01    0.1250E-01    0.1250E-01
[...]
        <PointData Scalars="scalars">
            <DataArray type="Float32" Name="seqv" Format="ascii">
                  0.0000E+00
                  0.0000E+00
                  0.0000E+00
                  0.0000E+00
                  0.0000E+00
                  0.0000E+00
                  0.0000E+00
                  0.0000E+00
                  0.0000E+00
                  0.0000E+00
                  0.0000E+00
                  0.0000E+00
                  0.0000E+00
                  0.0000E+00
                  0.0000E+00
                  0.0000E+00
                  0.0000E+00
                  0.0000E+00
                  0.0000E+00
                  0.0000E+00
                  0.0000E+00
                  0.0000E+00
                  0.0000E+00
                  0.0000E+00
                  0.0000E+00
                  0.0000E+00
                  0.0000E+00
                  0.0000E+00
                  0.0000E+00
                  0.0000E+00
                  0.0000E+00
                  0.0000E+00
                  0.0000E+00
                  0.0000E+00
                  0.0000E+00
                  0.0000E+00
                  0.0000E+00
                  0.0000E+00
                  0.0000E+00
                  0.0000E+00
                  0.0000E+00
                  0.0000E+00
                  0.0000E+00
                  0.0000E+00
                  0.0000E+00
                  0.0000E+00
                  0.0000E+00
                  0.0000E+00
                  0.0000E+00
                  0.0000E+00
                  0.0000E+00
                  0.0000E+00
                  0.0000E+00
                  0.0000E+00
                  0.0000E+00
                  0.0000E+00
                  0.0000E+00
                  0.0000E+00
                  0.0000E+00
                  0.0000E+00
                  0.0000E+00
                  0.0000E+00
                  0.0000E+00
                  0.0000E+00
                  0.0000E+00
                  0.0000E+00
                  0.0000E+00
                  0.0000E+00
                  0.0000E+00
                  0.0000E+00
                  0.0000E+00
                  0.0000E+00
                  0.0000E+00
                  0.0000E+00
                  0.0000E+00
                  0.0000E+00
                  0.0000E+00
                  0.0000E+00
                  0.0000E+00
                  0.0000E+00
                  0.0000E+00
                  0.0000E+00
                  0.0000E+00
                  0.0000E+00
                  0.0000E+00
                  0.0000E+00
                  0.0000E+00
                  0.0000E+00
                  0.0000E+00
                  0.0000E+00
                  0.0000E+00
                  0.0000E+00
                  0.0000E+00
                  0.0000E+00
                  0.0000E+00
                  0.0000E+00
                  0.0000E+00
                  0.0000E+00
                  0.0000E+00
                  0.0000E+00
                  0.0000E+00
                  0.0000E+00
                  0.0000E+00
                  0.0000E+00
                  0.0000E+00
                  0.0000E+00
                  0.0000E+00
                  0.0000E+00
                  0.0000E+00
                  0.0000E+00
                  0.0000E+00
                  0.0000E+00
                  0.0000E+00
                  0.0000E+00
                  0.0000E+00
                  0.0000E+00
                  0.0000E+00
                  0.0000E+00
                  0.0000E+00
                  0.0000E+00
                  0.0000E+00
                  0.0000E+00
                  0.0000E+00
                  0.0000E+00
                  0.0000E+00
                  0.0000E+00
                  0.0000E+00
                  0.0000E+00
                  0.0000E+00
                  0.0000E+00
                  0.0000E+00
                  0.0000E+00
                  0.0000E+00
                  0.0000E+00
                  0.0000E+00
                  0.0000E+00
                  0.0000E+00
                  0.0000E+00
                  0.0000E+00
                  0.0000E+00
                  0.0000E+00
                  0.0000E+00
                  0.0000E+00
                  0.0000E+00
                  0.0000E+00
                  0.0000E+00
                  0.0000E+00
                  0.0000E+00
                  0.0000E+00
                  0.0000E+00
                  0.0000E+00
                  0.0000E+00
                  0.0000E+00
                  0.0000E+00
                  0.0000E+00
                  0.0000E+00
                  0.0000E+00
                  0.0000E+00
                  0.0000E+00
                  0.0000E+00
                  0.0000E+00
                  0.0000E+00
                  0.0000E+00
                  0.0000E+00
                  0.0000E+00
                  0.0000E+00
                  0.0000E+00
                  0.0000E+00
                  0.0000E+00
                  0.0000E+00
                  0.0000E+00
                  0.0000E+00
                  0.0000E+00
                  0.0000E+00
                  0.0000E+00
                  0.0000E+00
                  0.0000E+00
                  0.0000E+00
                  0.0000E+00
                  0.0000E+00
                  0.0000E+00
                  0.0000E+00
                  0.0000E+00
                  0.0000E+00
                  0.0000E+00
                  0.0000E+00
                  0.0000E+00
                  0.0000E+00
                  0.0000E+00
                  0.0000E+00
                  0.0000E+00
                  0.0000E+00
                  0.0000E+00
                  0.0000E+00
                  0.0000E+00
                  0.0000E+00
                  0.0000E+00
                  0.0000E+00
                  0.0000E+00
                  0.0000E+00
                  0.0000E+00
                  0.0000E+00
                  0.0000E+00
                  0.0000E+00
                  0.0000E+00
                  0.0000E+00
                  0.0000E+00
                  0.0000E+00
                  0.0000E+00
                  0.0000E+00
                  0.0000E+00
                  0.0000E+00
                  0.0000E+00
                  0.0000E+00
                  0.0000E+00
                  0.0000E+00
                  0.0000E+00
                  0.0000E+00
                  0.0000E+00
                  0.0000E+00
                  0.0000E+00
                  0.0000E+00
                  0.0000E+00
                  0.0000E+00
                  0.0000E+00
                  0.0000E+00
                  0.0000E+00
                  0.0000E+00
                  0.0000E+00
                  0.0000E+00
                  0.0000E+00
                  0.0000E+00
                  0.0000E+00
                  0.0000E+00
                  0.0000E+00
                  0.0000E+00
                  0.0000E+00
                  0.0000E+00
                  0.0000E+00
                  0.0000E+00
                  0.0000E+00
                  0.0000E+00
                  0.0000E+00
                  0.0000E+00
                  0.0000E+00
                  0.0000E+00
                  0.0000E+00
                  0.0000E+00
                  0.0000E+00
                  0.0000E+00
                  0.0000E+00
                  0.0000E+00
                  0.0000E+00
                  0.0000E+00
                  0.0000E+00
                  0.0000E+00
                  0.0000E+00
                  0.0000E+00
                  0.0000E+00
                  0.0000E+00
                  0.0000E+00
                  0.0000E+00
                  0.0000E+00
                  0.0000E+00
                  0.0000E+00
                  0.0000E+00
                  0.0000E+00
                  0.0000E+00
                  0.0000E+00
                  0.0000E+00
                  0.0000E+00
                  0.0000E+00
                  0.0000E+00
                  0.0000E+00
                  0.0000E+00
                  0.0000E+00
                  0.0000E+00
                  0.0000E+00
                  0.0000E+00
                  0.0000E+00
                  0.0000E+00
                  0.0000E+00
                  0.0000E+00
                  0.0000E+00
                  0.0000E+00
                  0.0000E+00
                  0.0000E+00
                  0.0000E+00
                  0.0000E+00
                  0.0000E+00
                  0.0000E+00
                  0.0000E+00
                  0.0000E+00
                  0.0000E+00
                  0.0000E+00
                  0.0000E+00
                  0.0000E+00
                  0.0000E+00
                  0.0000E+00
                  0.0000E+00
                  0.0000E+00
                  0.0000E+00
                  0.0000E+00
                  0.0000E+00
                  0.0000E+00
                  0.0000E+00
                  0.0000E+00
                  0.0000E+00
                  0.0000E+00
                  0.0000E+00
                  0.0000E+00
                  0.0000E+00
                  0.0000E+00
                  0.0000E+00
                  0.0000E+00
                  0.0000E+00
                  0.0000E+00
                  0.0000E+00
                  0.0000E+00
                  0.0000E+00
                  0.0000E+00
                  0.0000E+00
                  0.0000E+00
                  0.0000E+00
                  0.0000E+00
                  0.0000E+00
                  0.0000E+00
                  0.0000E+00
                  0.0000E+00
                  0.0000E+00
                  0.0000E+00
                  0.0000E+00
                  0.0000E+00
                  0.0000E+00
                  0.0000E+00
                  0.0000E+00
                  0.0000E+00
                  0.0000E+00
                  0.0000E+00
                  0.0000E+00
                  0.0000E+00
                  0.0000E+00
                  0.0000E+00
                  0.0000E+00
                  0.0000E+00
                  0.0000E+00
                  0.0000E+00
                  0.0000E+00
                  0.0000E+00
                  0.0000E+00
                  0.0000E+00
                  0.0000E+00
                  0.0000E+00
                  0.0000E+00
                  0.0000E+00
                  0.0000E+00
                  0.0000E+00
                  0.0000E+00
                  0.0000E+00
                  0.0000E+00
                  0.0000E+00
                  0.0000E+00
                  0.0000E+00
                  0.0000E+00
                  0.0000E+00
                  0.0000E+00
                  0.0000E+00
                  0.0000E+00
                  0.0000E+00
                  0.0000E+00
                  0.0000E+00
                  0.0000E+00
                  0.0000E+00
                  0.0000E+00
                  0.0000E+00
                  0.0000E+00
                  0.0000E+00
                  0.0000E+00
                  0.0000E+00
                  0.0000E+00
                  0.0000E+00
                  0.0000E+00
                  0.0000E+00
                  0.0000E+00
                  0.0000E+00
                  0.0000E+00
                  0.0000E+00
                  0.0000E+00
                  0.0000E+00
                  0.0000E+00
                  0.0000E+00
                  0.0000E+00
                  0.0000E+00
                  0.0000E+00
                  0.0000E+00
                  0.0000E+00
                  0.0000E+00
                  0.0000E+00
                  0.0000E+00
                  0.0000E+00
                  0.0000E+00
                  0.0000E+00
                  0.0000E+00
                  0.0000E+00
                  0.0000E+00
                  0.0000E+00
                  0.0000E+00
                  0.0000E+00
                  0.0000E+00
                  0.0000E+00
                  0.0000E+00
                  0.0000E+00
                  0.0000E+00
                  0.0000E+00
                  0.0000E+00
                  0.0000E+00
                  0.0000E+00
                  0.0000E+00
                  0.0000E+00
                  0.0000E+00
                  0.0000E+00
                  0.0000E+00
                  0.0000E+00
                  0.0000E+00
                  0.0000E+00
                  0.0000E+00
                  0.0000E+00
                  0.0000E+00
                  0.0000E+00
                  0.0000E+00
                  0.0000E+00
                  0.0000E+00
                  0.0000E+00
                  0.0000E+00
                  0.0000E+00
                  0.0000E+00
                  0.0000E+00
                  0.0000E+00
                  0.0000E+00
                  0.0000E+00
                  0.0000E+00
                  0.0000E+00
                  0.0000E+00
                  0.0000E+00
                  0.0000E+00
                  0.0000E+00
                  0.0000E+00
                  0.0000E+00
                  0.0000E+00
                  0.0000E+00
                  0.0000E+00
                  0.0000E+00
                  0.0000E+00
                  0.0000E+00
                  0.0000E+00
                  0.0000E+00
                  0.0000E+00
                  0.0000E+00
                  0.0000E+00
                  0.0000E+00
                  0.0000E+00
                  0.0000E+00
                  0.0000E+00
                  0.0000E+00
                  0.0000E+00
                  0.0000E+00
                  0.0000E+00
                  0.0000E+00
                  0.0000E+00
                  0.0000E+00
                  0.0000E+00
                  0.0000E+00
                  0.0000E+00
                  0.0000E+00
                  0.0000E+00
                  0.0000E+00
                  0.0000E+00
                  0.0000E+00
                  0.0000E+00
                  0.0000E+00
                  0.0000E+00
                  0.0000E+00
                  0.0000E+00
                  0.0000E+00
                  0.0000E+00
                  0.0000E+00
                  0.0000E+00
                  0.0000E+00
                  0.0000E+00
                  0.0000E+00
                  0.0000E+00
                  0.0000E+00
                  0.0000E+00
                  0.0000E+00
                  0.0000E+00
                  0.0000E+00
                  0.0000E+00
                  0.0000E+00
                  0.0000E+00
                  0.0000E+00
                  0.0000E+00
                  0.0000E+00
                  0.0000E+00
                  0.0000E+00
                  0.0000E+00
                  0.0000E+00
                  0.0000E+00
                  0.0000E+00
                  0.0000E+00
                  0.0000E+00
                  0.0000E+00
                  0.0000E+00
                  0.0000E+00
                  0.0000E+00
                  0.0000E+00
                  0.0000E+00
                  0.0000E+00
                  0.0000E+00
                  0.0000E+00
                  0.0000E+00
                  0.0000E+00
                  0.0000E+00
                  0.0000E+00
                  0.0000E+00
                  0.0000E+00
                  0.0000E+00
                  0.0000E+00
                  0.0000E+00
                  0.0000E+00
                  0.0000E+00
                  0.0000E+00
                  0.0000E+00
                  0.0000E+00
                  0.0000E+00
                  0.0000E+00
                  0.0000E+00
                  0.0000E+00
                  0.0000E+00
                  0.0000E+00
                  0.0000E+00
                  0.0000E+00
                  0.0000E+00
                  0.0000E+00
                  0.0000E+00
                  0.0000E+00
                  0.0000E+00
                  0.0000E+00
                  0.0000E+00
                  0.0000E+00
                  0.0000E+00
                  0.0000E+00
                  0.0000E+00
                  0.0000E+00
                  0.0000E+00
                  0.0000E+00
                  0.0000E+00
                  0.0000E+00
                  0.0000E+00
                  0.0000E+00
                  0.0000E+00
                  0.0000E+00
                  0.0000E+00
                  0.0000E+00
                  0.0000E+00
                  0.0000E+00
                  0.0000E+00
                  0.0000E+00
                  0.0000E+00
                  0.0000E+00
                  0.0000E+00
                  0.0000E+00
                  0.0000E+00
                  0.0000E+00
                  0.0000E+00
                  0.0000E+00
                  0.0000E+00
                  0.0000E+00
                  0.0000E+00
                  0.0000E+00
                  0.0000E+00
                  0.0000E+00
                  0.0000E+00
                  0.0000E+00
                  0.0000E+00
                  0.0000E+00
                  0.0000E+00
                  0.0000E+00
                  0.0000E+00
                  0.0000E+00
                  0.0000E+00
                  0.0000E+00
                  0.0000E+00
                  0.0000E+00
                  0.0000E+00
                  0.0000E+00
                  0.0000E+00
                  0.0000E+00
                  0.0000E+00
                  0.0000E+00
                  0.0000E+00
                  0.0000E+00
                  0.0000E+00
                  0.0000E+00
                  0.0000E+00
                  0.0000E+00
                  0.0000E+00
                  0.0000E+00
                  0.0000E+00
                  0.0000E+00
                  0.0000E+00
                  0.0000E+00
                  0.0000E+00
                  0.0000E+00
                  0.0000E+00
                  0.0000E+00
                  0.0000E+00
                  0.0000E+00
                  0.0000E+00
                  0.0000E+00
                  0.0000E+00
                  0.0000E+00
                  0.0000E+00
                  0.0000E+00
                  0.0000E+00
                  0.0000E+00
                  0.0000E+00
                  0.0000E+00
                  0.0000E+00
                  0.0000E+00
                  0.0000E+00
                  0.0000E+00
                  0.0000E+00
                  0.0000E+00
                  0.0000E+00
                  0.0000E+00
                  0.0000E+00
                  0.0000E+00
                  0.0000E+00
                  0.0000E+00
                  0.0000E+00
                  0.0000E+00
                  0.0000E+00
                  0.0000E+00
                  0.0000E+00
                  0.0000E+00
                  0.0000E+00
                  0.0000E+00
                  0.0000E+00
                  0.0000E+00
                  0.0000E+00
                  0.0000E+00
                  0.0000E+00
                  0.0000E+00
                  0.0000E+00
                  0.0000E+00
                  0.0000E+00
                  0.0000E+00
                  0.0000E+00
                  0.0000E+00
                  0.0000E+00
                  0.0000E+00
                  0.0000E+00
                  0.0000E+00
                  0.0000E+00
                  0.0000E+00
                  0.0000E+00
                  0.0000E+00
                  0.0000E+00
                  0.0000E+00
                  0.0000E+00
                  0.0000E+00
                  0.0000E+00
                  0.0000E+00
                  0.0000E+00
                  0.0000E+00
                  0.0000E+00
                  0.0000E+00
                  0.0000E+00
                  0.0000E+00
                  0.0000E+00
                  0.0000E+00
                  0.0000E+00
                  0.0000E+00
                  0.0000E+00
                  0.0000E+00
                  0.0000E+00